Ar    ONCVPSP-3.3.0  r_core=   1.56397   1.56397   1.56397
     18.0000      8.0000      220117    zatom,zion,pspd
     8      11   2     4   400     0    pspcod,pspxc,lmax,lloc,mmax,r2well
  3.99000000  0.00000000  0.00000000    rchrg fchrg qchrg
     2     2     2     0     0    nproj
     1     1           extension_switch
   0                         8.6063741412601D+00  4.5336939296002D-01
     1  0.0000000000000D+00 -4.5916714874750D-11  2.5363899869291D-10
     2  1.0000000000000D-02  6.3496552740096D-02 -3.8186271988958D-02
     3  2.0000000000000D-02  1.2687647494923D-01 -7.6209270803255D-02
     4  3.0000000000000D-02  1.9002345431427D-01 -1.1390649395366D-01
     5  4.0000000000000D-02  2.5282181353059D-01 -1.5111697436106D-01
     6  5.0000000000000D-02  3.1515682425041D-01 -1.8768203322512D-01
     7  6.0000000000000D-02  3.7691501679685D-01 -2.2344601527143D-01
     8  7.0000000000000D-02  4.3798448428684D-01 -2.5825700080480D-01
     9  8.0000000000000D-02  4.9825517985193D-01 -2.9196748924985D-01
    10  9.0000000000000D-02  5.5761920570226D-01 -3.2443504917103D-01
    11  1.0000000000000D-01  6.1597109284525D-01 -3.5552293012936D-01
    12  1.1000000000000D-01  6.7320807034583D-01 -3.8510063214710D-01
    13  1.2000000000000D-01  7.2923032309849D-01 -4.1304442900984D-01
    14  1.3000000000000D-01  7.8394123717204D-01 -4.3923784213265D-01
    15  1.4000000000000D-01  8.3724763188498D-01 -4.6357206224643D-01
    16  1.5000000000000D-01  8.8905997787138D-01 -4.8594631671597D-01
    17  1.6000000000000D-01  9.3929260050304D-01 -5.0626818087647D-01
    18  1.7000000000000D-01  9.8786386814261D-01 -5.2445383236209D-01
    19  1.8000000000000D-01  1.0346963648124D+00 -5.4042824799301D-01
    20  1.9000000000000D-01  1.0797170469745D+00 -5.5412534337698D-01
    21  2.0000000000000D-01  1.1228573842267D+00 -5.6548805596314D-01
    22  2.1000000000000D-01  1.1640534838282D+00 -5.7446837285005D-01
    23  2.2000000000000D-01  1.2032461990703D+00 -5.8102730519184D-01
    24  2.3000000000000D-01  1.2403812216103D+00 -5.8513481155781D-01
    25  2.4000000000000D-01  1.2754091579800D+00 -5.8676967307736D-01
    26  2.5000000000000D-01  1.3082855905668D+00 -5.8591932363593D-01
    27  2.6000000000000D-01  1.3389711234502D+00 -5.8257963877606D-01
    28  2.7000000000000D-01  1.3674314135449D+00 -5.7675468729295D-01
    29  2.8000000000000D-01  1.3936371875684D+00 -5.6845644979604D-01
    30  2.9000000000000D-01  1.4175642454064D+00 -5.5770450872969D-01
    31  3.0000000000000D-01  1.4391934504912D+00 -5.4452571450822D-01
    32  3.1000000000000D-01  1.4585107078487D+00 -5.2895383251874D-01
    33  3.2000000000000D-01  1.4755069304890D+00 -5.1102917578136D-01
    34  3.3000000000000D-01  1.4901779948365D+00 -4.9079822802654D-01
    35  3.4000000000000D-01  1.5025246858953D+00 -4.6831326185948D-01
    36  3.5000000000000D-01  1.5125526328451D+00 -4.4363195652773D-01
    37  3.6000000000000D-01  1.5202722357473D+00 -4.1681701959681D-01
    38  3.7000000000000D-01  1.5256985840172D+00 -3.8793581657086D-01
    39  3.8000000000000D-01  1.5288513672902D+00 -3.5706001217629D-01
    40  3.9000000000000D-01  1.5297547792695D+00 -3.2426522665867D-01
    41  4.0000000000000D-01  1.5284374150983D+00 -2.8963071003441D-01
    42  4.1000000000000D-01  1.5249321627506D+00 -2.5323903679257D-01
    43  4.2000000000000D-01  1.5192760888783D+00 -2.1517582306643D-01
    44  4.3000000000000D-01  1.5115103194948D+00 -1.7552946779477D-01
    45  4.4000000000000D-01  1.5016799158140D+00 -1.3439091887649D-01
    46  4.5000000000000D-01  1.4898337455035D+00 -9.1853464797170D-02
    47  4.6000000000000D-01  1.4760243495467D+00 -4.8012551678397D-02
    48  4.7000000000000D-01  1.4603078048487D+00 -2.9656251792442D-03
    49  4.8000000000000D-01  1.4427435826650D+00  4.3188003829361D-02
    50  4.9000000000000D-01  1.4233944028736D+00  9.0347271385313D-02
    51  5.0000000000000D-01  1.4023260840644D+00  1.3840945237960D-01
    52  5.1000000000000D-01  1.3796073893729D+00  1.8727023477939D-01
    53  5.2000000000000D-01  1.3553098679511D+00  2.3682377897207D-01
    54  5.3000000000000D-01  1.3295076919338D+00  2.8696276541126D-01
    55  5.4000000000000D-01  1.3022774887401D+00  3.3757843403510D-01
    56  5.5000000000000D-01  1.2736981685356D+00  3.8856061915861D-01
    57  5.6000000000000D-01  1.2438507466777D+00  4.3979778371406D-01
    58  5.7000000000000D-01  1.2128181609700D+00  4.9117705682211D-01
    59  5.8000000000000D-01  1.1806850835722D+00  5.4258427871986D-01
    60  5.9000000000000D-01  1.1475377274341D+00  5.9390405704816D-01
    61  6.0000000000000D-01  1.1134636471595D+00  6.4501983840992D-01
    62  6.1000000000000D-01  1.0785515342529D+00  6.9581399895255D-01
    63  6.2000000000000D-01  1.0428910067539D+00  7.4616795750485D-01
    64  6.3000000000000D-01  1.0065723933311D+00  7.9596231451021D-01
    65  6.4000000000000D-01  9.6968651197725D-01  8.4507701965191D-01
    66  6.5000000000000D-01  9.3232444352608D-01  8.9339157066074D-01
    67  6.6000000000000D-01  8.9457730029843D-01  9.4078524534008D-01
    68  6.7000000000000D-01  8.5653599027349D-01  9.8713736834273D-01
    69  6.8000000000000D-01  8.1829097727689D-01  1.0323276136901D+00
    70  6.9000000000000D-01  7.7993203777389D-01  1.0762363434508D+00
    71  7.0000000000000D-01  7.4154801495388D-01  1.1187449823969D+00
    72  7.1000000000000D-01  7.0322657089130D-01  1.1597364278353D+00
    73  7.2000000000000D-01  6.6505393766405D-01  1.1990954931867D+00
    74  7.3000000000000D-01  6.2711466840415D-01  1.2367093832570D+00
    75  7.4000000000000D-01  5.8949138934412D-01  1.2724681985217D+00
    76  7.5000000000000D-01  5.5226455400494D-01  1.3062654651485D+00
    77  7.6000000000000D-01  5.1551220074676D-01  1.3379986868938D+00
    78  7.7000000000000D-01  4.7930971496921D-01  1.3675699144748D+00
    79  7.8000000000000D-01  4.4372959730397D-01  1.3948863275080D+00
    80  7.9000000000000D-01  4.0884123918602D-01  1.4198608236568D+00
    81  8.0000000000000D-01  3.7471070722145D-01  1.4424126092318D+00
    82  8.1000000000000D-01  3.4140053778724D-01  1.4624677851556D+00
    83  8.2000000000000D-01  3.0896954330113D-01  1.4799599219426D+00
    84  8.3000000000000D-01  2.7747263158785D-01  1.4948306171517D+00
    85  8.4000000000000D-01  2.4696063973948D-01  1.5070300286657D+00
    86  8.5000000000000D-01  2.1748018382361D-01  1.5165173771195D+00
    87  8.6000000000000D-01  1.8907352573286D-01  1.5232614108610D+00
    88  8.7000000000000D-01  1.6177845839192D-01  1.5272408269692D+00
    89  8.8000000000000D-01  1.3562821044667D-01  1.5284446420858D+00
    90  8.9000000000000D-01  1.1065137145096D-01  1.5268725071327D+00
    91  9.0000000000000D-01  8.6871838444480D-02  1.5225349603840D+00
    92  9.1000000000000D-01  6.4308784678086D-02  1.5154536138437D+00
    93  9.2000000000000D-01  4.2976651093532D-02  1.5056612684335D+00
    94  9.3000000000000D-01  2.2885161003288D-02  1.4932019541224D+00
    95  9.4000000000000D-01  4.0393582449632D-03  1.4781308918211D+00
    96  9.5000000000000D-01 -1.3560331095075D-02  1.4605143746119D+00
    97  9.6000000000000D-01 -2.9918013480940D-02  1.4404295666870D+00
    98  9.7000000000000D-01 -4.5042219532801D-02  1.4179642192019D+00
    99  9.8000000000000D-01 -5.8945772917563D-02  1.3932163031283D+00
   100  9.9000000000000D-01 -7.1645637198664D-02  1.3662935600837D+00
   101  1.0000000000000D+00 -8.3162741510626D-02  1.3373129730001D+00
   102  1.0100000000000D+00 -9.3521786120396D-02  1.3064001594319D+00
   103  1.0200000000000D+00 -1.0275102911801D-01  1.2736886911662D+00
   104  1.0300000000000D+00 -1.1088205565881D-01  1.2393193446849D+00
   105  1.0400000000000D+00 -1.1794953134642D-01  1.2034392878602D+00
   106  1.0500000000000D+00 -1.2399094150521D-01  1.1662012090795D+00
   107  1.0600000000000D+00 -1.2904631822176D-01  1.1277623956793D+00
   108  1.0700000000000D+00 -1.3315795717735D-01  1.0882837693267D+00
   109  1.0800000000000D+00 -1.3637012638922D-01  1.0479288865256D+00
   110  1.0900000000000D+00 -1.3872876907409D-01  1.0068629129762D+00
   111  1.1000000000000D+00 -1.4028120291358D-01  9.6525158093440D-01
   112  1.1100000000000D+00 -1.4107581804957D-01  9.2326013904382D-01
   113  1.1200000000000D+00 -1.4116177616570D-01  8.8105230437785D-01
   114  1.1300000000000D+00 -1.4058871301031D-01  8.3878922652281D-01
   115  1.1400000000000D+00 -1.3940644668514D-01  7.9662847352319D-01
   116  1.1500000000000D+00 -1.3766469400108D-01  7.5472304948232D-01
   117  1.1600000000000D+00 -1.3541279710910D-01  7.1322045332964D-01
   118  1.1700000000000D+00 -1.3269946253272D-01  6.7226178796427D-01
   119  1.1800000000000D+00 -1.2957251459255D-01  6.3198092846831D-01
   120  1.1900000000000D+00 -1.2607866512727D-01  5.9250375775364D-01
   121  1.2000000000000D+00 -1.2226330119035D-01  5.5394747708514D-01
   122  1.2100000000000D+00 -1.1817029223501D-01  5.1641999820680D-01
   123  1.2200000000000D+00 -1.1384181816042D-01  4.8001942321176D-01
   124  1.2300000000000D+00 -1.0931821931922D-01  4.4483361711901D-01
   125  1.2400000000000D+00 -1.0463786934107D-01  4.1093987702715D-01
   126  1.2500000000000D+00 -9.9837071445903D-02  3.7840470091150D-01
   127  1.2600000000000D+00 -9.4949978681310D-02  3.4728365807154D-01
   128  1.2700000000000D+00 -9.0008538137985D-02  3.1762136150288D-01
   129  1.2800000000000D+00 -8.5042459058532D-02  2.8945154183366D-01
   130  1.2900000000000D+00 -8.0079204524229D-02  2.6279722142200D-01
   131  1.3000000000000D+00 -7.5144005931245D-02  2.3767098502100D-01
   132  1.3100000000000D+00 -7.0259899435537D-02  2.1407534326288D-01
   133  1.3200000000000D+00 -6.5447783252492D-02  1.9200318386460D-01
   134  1.3300000000000D+00 -6.0726494244412D-02  1.7143830332508D-01
   135  1.3400000000000D+00 -5.6112902329373D-02  1.5235601235630D-01
   136  1.3500000000000D+00 -5.1622020804204D-02  1.3472380622442D-01
   137  1.3600000000000D+00 -4.7267130417993D-02  1.1850208994260D-01
   138  1.3700000000000D+00 -4.3059915190168D-02  1.0364494902051D-01
   139  1.3800000000000D+00 -3.9010607368500D-02  9.0100953615805D-02
   140  1.3900000000000D+00 -3.5128139100528D-02  7.7813984768578D-02
   141  1.4000000000000D+00 -3.1420298209661D-02  6.6724070546191D-02
   142  1.4100000000000D+00 -2.7893885256037D-02  5.6768218869964D-02
   143  1.4200000000000D+00 -2.4554869218485D-02  4.7881234571978D-02
   144  1.4300000000000D+00 -2.1408538880223D-02  3.9996506974675D-02
   145  1.4400000000000D+00 -1.8459647246070D-02  3.3046755444993D-02
   146  1.4500000000000D+00 -1.5712546026184D-02  2.6964718997427D-02
   147  1.4600000000000D+00 -1.3171306832441D-02  2.1683771229691D-02
   148  1.4700000000000D+00 -1.0839831502536D-02  1.7138489328275D-02
   149  1.4800000000000D+00 -8.7219281102141D-03  1.3265000309199D-02
   150  1.4900000000000D+00 -6.8214220701384D-03  1.0001649090269D-02
   151  1.5000000000000D+00 -5.1421706663562D-03  7.2889937730984D-03
   152  1.5100000000000D+00 -3.6880886278506D-03  5.0688645532571D-03
   153  1.5200000000000D+00 -2.4637952212646D-03  3.2883899551188D-03
   154  1.5300000000000D+00 -1.4696707236723D-03  1.8981672038337D-03
   155  1.5400000000000D+00 -7.1660515036582D-04  8.7070858576443D-04
   156  1.5500000000000D+00 -2.2906798877112D-04  2.0191971899084D-04
   157  1.5600000000000D+00  7.6276120910524D-06 -1.2442619535097D-04
   158  1.5700000000000D+00  5.5281768243694D-05 -1.5129491051544D-04
   159  1.5800000000000D+00  1.3227400334342D-05 -3.1845127418168D-05
   160  1.5900000000000D+00 -1.1972816725428D-05  2.7682918753257D-05
   161  1.6000000000000D+00 -2.8806585638476D-06  6.4810857965467D-06
   162  1.6100000000000D+00  2.3825066589355D-06 -5.8100059404926D-06
   163  1.6200000000000D+00  3.3981275978922D-07 -8.1697312744396D-07
   164  1.6300000000000D+00 -1.2849887480563D-07  4.7916010332829D-07
   165  1.6400000000000D+00 -7.7956425625447D-09  2.9069210928341D-08
   166  1.6500000000000D+00  0.0000000000000D+00  0.0000000000000D+00
   167  1.6600000000000D+00  0.0000000000000D+00  0.0000000000000D+00
   168  1.6700000000000D+00  0.0000000000000D+00  0.0000000000000D+00
   169  1.6800000000000D+00  0.0000000000000D+00  0.0000000000000D+00
   170  1.6900000000000D+00  0.0000000000000D+00  0.0000000000000D+00
   171  1.7000000000000D+00  0.0000000000000D+00  0.0000000000000D+00
   172  1.7100000000000D+00  0.0000000000000D+00  0.0000000000000D+00
   173  1.7200000000000D+00  0.0000000000000D+00  0.0000000000000D+00
   174  1.7300000000000D+00  0.0000000000000D+00  0.0000000000000D+00
   175  1.7400000000000D+00  0.0000000000000D+00  0.0000000000000D+00
   176  1.7500000000000D+00  0.0000000000000D+00  0.0000000000000D+00
   177  1.7600000000000D+00  0.0000000000000D+00  0.0000000000000D+00
   178  1.7700000000000D+00  0.0000000000000D+00  0.0000000000000D+00
   179  1.7800000000000D+00  0.0000000000000D+00  0.0000000000000D+00
   180  1.7900000000000D+00  0.0000000000000D+00  0.0000000000000D+00
   181  1.8000000000000D+00  0.0000000000000D+00  0.0000000000000D+00
   182  1.8100000000000D+00  0.0000000000000D+00  0.0000000000000D+00
   183  1.8200000000000D+00  0.0000000000000D+00  0.0000000000000D+00
   184  1.8300000000000D+00  0.0000000000000D+00  0.0000000000000D+00
   185  1.8400000000000D+00  0.0000000000000D+00  0.0000000000000D+00
   186  1.8500000000000D+00  0.0000000000000D+00  0.0000000000000D+00
   187  1.8600000000000D+00  0.0000000000000D+00  0.0000000000000D+00
   188  1.8700000000000D+00  0.0000000000000D+00  0.0000000000000D+00
   189  1.8800000000000D+00  0.0000000000000D+00  0.0000000000000D+00
   190  1.8900000000000D+00  0.0000000000000D+00  0.0000000000000D+00
   191  1.9000000000000D+00  0.0000000000000D+00  0.0000000000000D+00
   192  1.9100000000000D+00  0.0000000000000D+00  0.0000000000000D+00
   193  1.9200000000000D+00  0.0000000000000D+00  0.0000000000000D+00
   194  1.9300000000000D+00  0.0000000000000D+00  0.0000000000000D+00
   195  1.9400000000000D+00  0.0000000000000D+00  0.0000000000000D+00
   196  1.9500000000000D+00  0.0000000000000D+00  0.0000000000000D+00
   197  1.9600000000000D+00  0.0000000000000D+00  0.0000000000000D+00
   198  1.9700000000000D+00  0.0000000000000D+00  0.0000000000000D+00
   199  1.9800000000000D+00  0.0000000000000D+00  0.0000000000000D+00
   200  1.9900000000000D+00  0.0000000000000D+00  0.0000000000000D+00
   201  2.0000000000000D+00  0.0000000000000D+00  0.0000000000000D+00
   202  2.0100000000000D+00  0.0000000000000D+00  0.0000000000000D+00
   203  2.0200000000000D+00  0.0000000000000D+00  0.0000000000000D+00
   204  2.0300000000000D+00  0.0000000000000D+00  0.0000000000000D+00
   205  2.0400000000000D+00  0.0000000000000D+00  0.0000000000000D+00
   206  2.0500000000000D+00  0.0000000000000D+00  0.0000000000000D+00
   207  2.0600000000000D+00  0.0000000000000D+00  0.0000000000000D+00
   208  2.0700000000000D+00  0.0000000000000D+00  0.0000000000000D+00
   209  2.0800000000000D+00  0.0000000000000D+00  0.0000000000000D+00
   210  2.0900000000000D+00  0.0000000000000D+00  0.0000000000000D+00
   211  2.1000000000000D+00  0.0000000000000D+00  0.0000000000000D+00
   212  2.1100000000000D+00  0.0000000000000D+00  0.0000000000000D+00
   213  2.1200000000000D+00  0.0000000000000D+00  0.0000000000000D+00
   214  2.1300000000000D+00  0.0000000000000D+00  0.0000000000000D+00
   215  2.1400000000000D+00  0.0000000000000D+00  0.0000000000000D+00
   216  2.1500000000000D+00  0.0000000000000D+00  0.0000000000000D+00
   217  2.1600000000000D+00  0.0000000000000D+00  0.0000000000000D+00
   218  2.1700000000000D+00  0.0000000000000D+00  0.0000000000000D+00
   219  2.1800000000000D+00  0.0000000000000D+00  0.0000000000000D+00
   220  2.1900000000000D+00  0.0000000000000D+00  0.0000000000000D+00
   221  2.2000000000000D+00  0.0000000000000D+00  0.0000000000000D+00
   222  2.2100000000000D+00  0.0000000000000D+00  0.0000000000000D+00
   223  2.2200000000000D+00  0.0000000000000D+00  0.0000000000000D+00
   224  2.2300000000000D+00  0.0000000000000D+00  0.0000000000000D+00
   225  2.2400000000000D+00  0.0000000000000D+00  0.0000000000000D+00
   226  2.2500000000000D+00  0.0000000000000D+00  0.0000000000000D+00
   227  2.2600000000000D+00  0.0000000000000D+00  0.0000000000000D+00
   228  2.2700000000000D+00  0.0000000000000D+00  0.0000000000000D+00
   229  2.2800000000000D+00  0.0000000000000D+00  0.0000000000000D+00
   230  2.2900000000000D+00  0.0000000000000D+00  0.0000000000000D+00
   231  2.3000000000000D+00  0.0000000000000D+00  0.0000000000000D+00
   232  2.3100000000000D+00  0.0000000000000D+00  0.0000000000000D+00
   233  2.3200000000000D+00  0.0000000000000D+00  0.0000000000000D+00
   234  2.3300000000000D+00  0.0000000000000D+00  0.0000000000000D+00
   235  2.3400000000000D+00  0.0000000000000D+00  0.0000000000000D+00
   236  2.3500000000000D+00  0.0000000000000D+00  0.0000000000000D+00
   237  2.3600000000000D+00  0.0000000000000D+00  0.0000000000000D+00
   238  2.3700000000000D+00  0.0000000000000D+00  0.0000000000000D+00
   239  2.3800000000000D+00  0.0000000000000D+00  0.0000000000000D+00
   240  2.3900000000000D+00  0.0000000000000D+00  0.0000000000000D+00
   241  2.4000000000000D+00  0.0000000000000D+00  0.0000000000000D+00
   242  2.4100000000000D+00  0.0000000000000D+00  0.0000000000000D+00
   243  2.4200000000000D+00  0.0000000000000D+00  0.0000000000000D+00
   244  2.4300000000000D+00  0.0000000000000D+00  0.0000000000000D+00
   245  2.4400000000000D+00  0.0000000000000D+00  0.0000000000000D+00
   246  2.4500000000000D+00  0.0000000000000D+00  0.0000000000000D+00
   247  2.4600000000000D+00  0.0000000000000D+00  0.0000000000000D+00
   248  2.4700000000000D+00  0.0000000000000D+00  0.0000000000000D+00
   249  2.4800000000000D+00  0.0000000000000D+00  0.0000000000000D+00
   250  2.4900000000000D+00  0.0000000000000D+00  0.0000000000000D+00
   251  2.5000000000000D+00  0.0000000000000D+00  0.0000000000000D+00
   252  2.5100000000000D+00  0.0000000000000D+00  0.0000000000000D+00
   253  2.5200000000000D+00  0.0000000000000D+00  0.0000000000000D+00
   254  2.5300000000000D+00  0.0000000000000D+00  0.0000000000000D+00
   255  2.5400000000000D+00  0.0000000000000D+00  0.0000000000000D+00
   256  2.5500000000000D+00  0.0000000000000D+00  0.0000000000000D+00
   257  2.5600000000000D+00  0.0000000000000D+00  0.0000000000000D+00
   258  2.5700000000000D+00  0.0000000000000D+00  0.0000000000000D+00
   259  2.5800000000000D+00  0.0000000000000D+00  0.0000000000000D+00
   260  2.5900000000000D+00  0.0000000000000D+00  0.0000000000000D+00
   261  2.6000000000000D+00  0.0000000000000D+00  0.0000000000000D+00
   262  2.6100000000000D+00  0.0000000000000D+00  0.0000000000000D+00
   263  2.6200000000000D+00  0.0000000000000D+00  0.0000000000000D+00
   264  2.6300000000000D+00  0.0000000000000D+00  0.0000000000000D+00
   265  2.6400000000000D+00  0.0000000000000D+00  0.0000000000000D+00
   266  2.6500000000000D+00  0.0000000000000D+00  0.0000000000000D+00
   267  2.6600000000000D+00  0.0000000000000D+00  0.0000000000000D+00
   268  2.6700000000000D+00  0.0000000000000D+00  0.0000000000000D+00
   269  2.6800000000000D+00  0.0000000000000D+00  0.0000000000000D+00
   270  2.6900000000000D+00  0.0000000000000D+00  0.0000000000000D+00
   271  2.7000000000000D+00  0.0000000000000D+00  0.0000000000000D+00
   272  2.7100000000000D+00  0.0000000000000D+00  0.0000000000000D+00
   273  2.7200000000000D+00  0.0000000000000D+00  0.0000000000000D+00
   274  2.7300000000000D+00  0.0000000000000D+00  0.0000000000000D+00
   275  2.7400000000000D+00  0.0000000000000D+00  0.0000000000000D+00
   276  2.7500000000000D+00  0.0000000000000D+00  0.0000000000000D+00
   277  2.7600000000000D+00  0.0000000000000D+00  0.0000000000000D+00
   278  2.7700000000000D+00  0.0000000000000D+00  0.0000000000000D+00
   279  2.7800000000000D+00  0.0000000000000D+00  0.0000000000000D+00
   280  2.7900000000000D+00  0.0000000000000D+00  0.0000000000000D+00
   281  2.8000000000000D+00  0.0000000000000D+00  0.0000000000000D+00
   282  2.8100000000000D+00  0.0000000000000D+00  0.0000000000000D+00
   283  2.8200000000000D+00  0.0000000000000D+00  0.0000000000000D+00
   284  2.8300000000000D+00  0.0000000000000D+00  0.0000000000000D+00
   285  2.8400000000000D+00  0.0000000000000D+00  0.0000000000000D+00
   286  2.8500000000000D+00  0.0000000000000D+00  0.0000000000000D+00
   287  2.8600000000000D+00  0.0000000000000D+00  0.0000000000000D+00
   288  2.8700000000000D+00  0.0000000000000D+00  0.0000000000000D+00
   289  2.8800000000000D+00  0.0000000000000D+00  0.0000000000000D+00
   290  2.8900000000000D+00  0.0000000000000D+00  0.0000000000000D+00
   291  2.9000000000000D+00  0.0000000000000D+00  0.0000000000000D+00
   292  2.9100000000000D+00  0.0000000000000D+00  0.0000000000000D+00
   293  2.9200000000000D+00  0.0000000000000D+00  0.0000000000000D+00
   294  2.9300000000000D+00  0.0000000000000D+00  0.0000000000000D+00
   295  2.9400000000000D+00  0.0000000000000D+00  0.0000000000000D+00
   296  2.9500000000000D+00  0.0000000000000D+00  0.0000000000000D+00
   297  2.9600000000000D+00  0.0000000000000D+00  0.0000000000000D+00
   298  2.9700000000000D+00  0.0000000000000D+00  0.0000000000000D+00
   299  2.9800000000000D+00  0.0000000000000D+00  0.0000000000000D+00
   300  2.9900000000000D+00  0.0000000000000D+00  0.0000000000000D+00
   301  3.0000000000000D+00  0.0000000000000D+00  0.0000000000000D+00
   302  3.0100000000000D+00  0.0000000000000D+00  0.0000000000000D+00
   303  3.0200000000000D+00  0.0000000000000D+00  0.0000000000000D+00
   304  3.0300000000000D+00  0.0000000000000D+00  0.0000000000000D+00
   305  3.0400000000000D+00  0.0000000000000D+00  0.0000000000000D+00
   306  3.0500000000000D+00  0.0000000000000D+00  0.0000000000000D+00
   307  3.0600000000000D+00  0.0000000000000D+00  0.0000000000000D+00
   308  3.0700000000000D+00  0.0000000000000D+00  0.0000000000000D+00
   309  3.0800000000000D+00  0.0000000000000D+00  0.0000000000000D+00
   310  3.0900000000000D+00  0.0000000000000D+00  0.0000000000000D+00
   311  3.1000000000000D+00  0.0000000000000D+00  0.0000000000000D+00
   312  3.1100000000000D+00  0.0000000000000D+00  0.0000000000000D+00
   313  3.1200000000000D+00  0.0000000000000D+00  0.0000000000000D+00
   314  3.1300000000000D+00  0.0000000000000D+00  0.0000000000000D+00
   315  3.1400000000000D+00  0.0000000000000D+00  0.0000000000000D+00
   316  3.1500000000000D+00  0.0000000000000D+00  0.0000000000000D+00
   317  3.1600000000000D+00  0.0000000000000D+00  0.0000000000000D+00
   318  3.1700000000000D+00  0.0000000000000D+00  0.0000000000000D+00
   319  3.1800000000000D+00  0.0000000000000D+00  0.0000000000000D+00
   320  3.1900000000000D+00  0.0000000000000D+00  0.0000000000000D+00
   321  3.2000000000000D+00  0.0000000000000D+00  0.0000000000000D+00
   322  3.2100000000000D+00  0.0000000000000D+00  0.0000000000000D+00
   323  3.2200000000000D+00  0.0000000000000D+00  0.0000000000000D+00
   324  3.2300000000000D+00  0.0000000000000D+00  0.0000000000000D+00
   325  3.2400000000000D+00  0.0000000000000D+00  0.0000000000000D+00
   326  3.2500000000000D+00  0.0000000000000D+00  0.0000000000000D+00
   327  3.2600000000000D+00  0.0000000000000D+00  0.0000000000000D+00
   328  3.2700000000000D+00  0.0000000000000D+00  0.0000000000000D+00
   329  3.2800000000000D+00  0.0000000000000D+00  0.0000000000000D+00
   330  3.2900000000000D+00  0.0000000000000D+00  0.0000000000000D+00
   331  3.3000000000000D+00  0.0000000000000D+00  0.0000000000000D+00
   332  3.3100000000000D+00  0.0000000000000D+00  0.0000000000000D+00
   333  3.3200000000000D+00  0.0000000000000D+00  0.0000000000000D+00
   334  3.3300000000000D+00  0.0000000000000D+00  0.0000000000000D+00
   335  3.3400000000000D+00  0.0000000000000D+00  0.0000000000000D+00
   336  3.3500000000000D+00  0.0000000000000D+00  0.0000000000000D+00
   337  3.3600000000000D+00  0.0000000000000D+00  0.0000000000000D+00
   338  3.3700000000000D+00  0.0000000000000D+00  0.0000000000000D+00
   339  3.3800000000000D+00  0.0000000000000D+00  0.0000000000000D+00
   340  3.3900000000000D+00  0.0000000000000D+00  0.0000000000000D+00
   341  3.4000000000000D+00  0.0000000000000D+00  0.0000000000000D+00
   342  3.4100000000000D+00  0.0000000000000D+00  0.0000000000000D+00
   343  3.4200000000000D+00  0.0000000000000D+00  0.0000000000000D+00
   344  3.4300000000000D+00  0.0000000000000D+00  0.0000000000000D+00
   345  3.4400000000000D+00  0.0000000000000D+00  0.0000000000000D+00
   346  3.4500000000000D+00  0.0000000000000D+00  0.0000000000000D+00
   347  3.4600000000000D+00  0.0000000000000D+00  0.0000000000000D+00
   348  3.4700000000000D+00  0.0000000000000D+00  0.0000000000000D+00
   349  3.4800000000000D+00  0.0000000000000D+00  0.0000000000000D+00
   350  3.4900000000000D+00  0.0000000000000D+00  0.0000000000000D+00
   351  3.5000000000000D+00  0.0000000000000D+00  0.0000000000000D+00
   352  3.5100000000000D+00  0.0000000000000D+00  0.0000000000000D+00
   353  3.5200000000000D+00  0.0000000000000D+00  0.0000000000000D+00
   354  3.5300000000000D+00  0.0000000000000D+00  0.0000000000000D+00
   355  3.5400000000000D+00  0.0000000000000D+00  0.0000000000000D+00
   356  3.5500000000000D+00  0.0000000000000D+00  0.0000000000000D+00
   357  3.5600000000000D+00  0.0000000000000D+00  0.0000000000000D+00
   358  3.5700000000000D+00  0.0000000000000D+00  0.0000000000000D+00
   359  3.5800000000000D+00  0.0000000000000D+00  0.0000000000000D+00
   360  3.5900000000000D+00  0.0000000000000D+00  0.0000000000000D+00
   361  3.6000000000000D+00  0.0000000000000D+00  0.0000000000000D+00
   362  3.6100000000000D+00  0.0000000000000D+00  0.0000000000000D+00
   363  3.6200000000000D+00  0.0000000000000D+00  0.0000000000000D+00
   364  3.6300000000000D+00  0.0000000000000D+00  0.0000000000000D+00
   365  3.6400000000000D+00  0.0000000000000D+00  0.0000000000000D+00
   366  3.6500000000000D+00  0.0000000000000D+00  0.0000000000000D+00
   367  3.6600000000000D+00  0.0000000000000D+00  0.0000000000000D+00
   368  3.6700000000000D+00  0.0000000000000D+00  0.0000000000000D+00
   369  3.6800000000000D+00  0.0000000000000D+00  0.0000000000000D+00
   370  3.6900000000000D+00  0.0000000000000D+00  0.0000000000000D+00
   371  3.7000000000000D+00  0.0000000000000D+00  0.0000000000000D+00
   372  3.7100000000000D+00  0.0000000000000D+00  0.0000000000000D+00
   373  3.7200000000000D+00  0.0000000000000D+00  0.0000000000000D+00
   374  3.7300000000000D+00  0.0000000000000D+00  0.0000000000000D+00
   375  3.7400000000000D+00  0.0000000000000D+00  0.0000000000000D+00
   376  3.7500000000000D+00  0.0000000000000D+00  0.0000000000000D+00
   377  3.7600000000000D+00  0.0000000000000D+00  0.0000000000000D+00
   378  3.7700000000000D+00  0.0000000000000D+00  0.0000000000000D+00
   379  3.7800000000000D+00  0.0000000000000D+00  0.0000000000000D+00
   380  3.7900000000000D+00  0.0000000000000D+00  0.0000000000000D+00
   381  3.8000000000000D+00  0.0000000000000D+00  0.0000000000000D+00
   382  3.8100000000000D+00  0.0000000000000D+00  0.0000000000000D+00
   383  3.8200000000000D+00  0.0000000000000D+00  0.0000000000000D+00
   384  3.8300000000000D+00  0.0000000000000D+00  0.0000000000000D+00
   385  3.8400000000000D+00  0.0000000000000D+00  0.0000000000000D+00
   386  3.8500000000000D+00  0.0000000000000D+00  0.0000000000000D+00
   387  3.8600000000000D+00  0.0000000000000D+00  0.0000000000000D+00
   388  3.8700000000000D+00  0.0000000000000D+00  0.0000000000000D+00
   389  3.8800000000000D+00  0.0000000000000D+00  0.0000000000000D+00
   390  3.8900000000000D+00  0.0000000000000D+00  0.0000000000000D+00
   391  3.9000000000000D+00  0.0000000000000D+00  0.0000000000000D+00
   392  3.9100000000000D+00  0.0000000000000D+00  0.0000000000000D+00
   393  3.9200000000000D+00  0.0000000000000D+00  0.0000000000000D+00
   394  3.9300000000000D+00  0.0000000000000D+00  0.0000000000000D+00
   395  3.9400000000000D+00  0.0000000000000D+00  0.0000000000000D+00
   396  3.9500000000000D+00  0.0000000000000D+00  0.0000000000000D+00
   397  3.9600000000000D+00  0.0000000000000D+00  0.0000000000000D+00
   398  3.9700000000000D+00  0.0000000000000D+00  0.0000000000000D+00
   399  3.9800000000000D+00  0.0000000000000D+00  0.0000000000000D+00
   400  3.9900000000000D+00  0.0000000000000D+00  0.0000000000000D+00
   1                         2.4065329533438D+00  2.3972482176468D-01
     1  0.0000000000000D+00  3.4753445954383D-10 -1.3538952875480D-09
     2  1.0000000000000D-02  1.3891404828890D-03 -8.6524154559576D-04
     3  2.0000000000000D-02  5.5512958201136D-03 -3.4540706635393D-03
     4  3.0000000000000D-02  1.2470692840680D-02 -7.7458630013092D-03
     5  4.0000000000000D-02  2.2121126612695D-02 -1.3706451222903D-02
     6  5.0000000000000D-02  3.4466085305279D-02 -2.1288432228349D-02
     7  6.0000000000000D-02  4.9458923668003D-02 -3.0431591985384D-02
     8  7.0000000000000D-02  6.7043083818909D-02 -4.1063442786618D-02
     9  8.0000000000000D-02  8.7152361684664D-02 -5.3099866391594D-02
    10  9.0000000000000D-02  1.0971121710760D-01 -6.6445855250479D-02
    11  1.0000000000000D-01  1.3463512532856D-01 -8.0996342854123D-02
    12  1.1000000000000D-01  1.6183096727508D-01 -9.6637113230839D-02
    13  1.2000000000000D-01  1.9119745583386D-01 -1.1324577872517D-01
    14  1.3000000000000D-01  2.2262559506788D-01 -1.3069281446269D-01
    15  1.4000000000000D-01  2.5599916915439D-01 -1.4884263733752D-01
    16  1.5000000000000D-01  2.9119525767052D-01 -1.6755471696076D-01
    17  1.6000000000000D-01  3.2808477374203D-01 -1.8668470578759D-01
    18  1.7000000000000D-01  3.6653302149563D-01 -2.0608557559633D-01
    19  1.8000000000000D-01  4.0640026921959D-01 -2.2560874762898D-01
    20  1.9000000000000D-01  4.4754233463724D-01 -2.4510520401159D-01
    21  2.0000000000000D-01  4.8981117873652D-01 -2.6442656855512D-01