<UPF version="2.0.1">
  <PP_INFO>

 This pseudopotential file has been produced using the code
 ONCVPSP  (Optimized Norm-Conservinng Vanderbilt PSeudopotential)
 scalar-relativistic version 3.3.0 08/16/2017 by D. R. Hamann
 The code is available through a link at URL www.mat-simresearch.com.
 Documentation with the package provides a full discription of the
 input data below.


 While it is not required under the terms of the GNU GPL, it is
 suggested that you cite D. R. Hamann, Phys. Rev. B 88, 085117 (2013)
 in any publication using these pseudopotentials.

    <PP_INPUTFILE>
# ATOM AND REFERENCE CONFIGURATION
# atsym  z   nc   nv     iexc    psfile
  Ar 18.00    3    2       4      both
#
#   n    l    f        energy (Ha)
    1    0    2.00
    2    0    2.00
    2    1    6.00
    3    0    2.00
    3    1    6.00
#
# PSEUDOPOTENTIAL AND OPTIMIZATION
# lmax
    2
#
#   l,   rc,      ep,       ncon, nbas, qcut
    0   1.55000  -0.89253    4    8   8.20000
    1   1.55000  -0.37741    4    8   8.20000
    2   1.55000   0.10000    4    8   8.20000
#
# LOCAL POTENTIAL
# lloc, lpopt,  rc(5),   dvloc0
    4    5   1.50000      0.00000
#
# VANDERBILT-KLEINMAN-BYLANDER PROJECTORs
# l, nproj, debl
    0    2   1.50000
    1    2   1.50000
    2    2   1.00000
#
# MODEL CORE CHARGE
# icmod, fcfact, rcfact
    0   0.00000   0.00000
#
# LOG DERIVATIVE ANALYSIS
# epsh1, epsh2, depsh
  -12.00   12.00    0.02
#
# OUTPUT GRID
# rlmax, drl
    4.00    0.01
#
# TEST CONFIGURATIONS
# ncnf
    0
# nvcnf
#   n    l    f
    </PP_INPUTFILE>
  </PP_INFO>
  <!--                               -->
  <!-- END OF HUMAN READABLE SECTION -->
  <!--                               -->
    <PP_HEADER
       generated="Generated using ONCVPSP code by D. R. Hamann"
       author="anonymous"
       date="220117"
       comment=""
       element="Ar"
       pseudo_type="NC"
       relativistic="scalar"
       is_ultrasoft="F"
       is_paw="F"
       is_coulomb="F"
       has_so="F"
       has_wfc="F"
       has_gipaw="F"
       core_correction="F"
       functional="PBE"
       z_valence="    8.00"
       total_psenergy="  -4.21901808211E+01"
       rho_cutoff="   9.37000000000E+00"
       l_max="2"
       l_local="-1"
       mesh_size="   938"
       number_of_wfc="2"
       number_of_proj="6"/>
 <PP_MESH>
   <PP_R type="real"  size=" 938" columns="8">
    0.0000    0.0100    0.0200    0.0300    0.0400    0.0500    0.0600    0.0700
    0.0800    0.0900    0.1000    0.1100    0.1200    0.1300    0.1400    0.1500
    0.1600    0.1700    0.1800    0.1900    0.2000    0.2100    0.2200    0.2300
    0.2400    0.2500    0.2600    0.2700    0.2800    0.2900    0.3000    0.3100
    0.3200    0.3300    0.3400    0.3500    0.3600    0.3700    0.3800    0.3900
    0.4000    0.4100    0.4200    0.4300    0.4400    0.4500    0.4600    0.4700
    0.4800    0.4900    0.5000    0.5100    0.5200    0.5300    0.5400    0.5500
    0.5600    0.5700    0.5800    0.5900    0.6000    0.6100    0.6200    0.6300
    0.6400    0.6500    0.6600    0.6700    0.6800    0.6900    0.7000    0.7100
    0.7200    0.7300    0.7400    0.7500    0.7600    0.7700    0.7800    0.7900
    0.8000    0.8100    0.8200    0.8300    0.8400    0.8500    0.8600    0.8700
    0.8800    0.8900    0.9000    0.9100    0.9200    0.9300    0.9400    0.9500
    0.9600    0.9700    0.9800    0.9900    1.0000    1.0100    1.0200    1.0300
    1.0400    1.0500    1.0600    1.0700    1.0800    1.0900    1.1000    1.1100
    1.1200    1.1300    1.1400    1.1500    1.1600    1.1700    1.1800    1.1900
    1.2000    1.2100    1.2200    1.2300    1.2400    1.2500    1.2600    1.2700
    1.2800    1.2900    1.3000    1.3100    1.3200    1.3300    1.3400    1.3500
    1.3600    1.3700    1.3800    1.3900    1.4000    1.4100    1.4200    1.4300
    1.4400    1.4500    1.4600    1.4700    1.4800    1.4900    1.5000    1.5100
    1.5200    1.5300    1.5400    1.5500    1.5600    1.5700    1.5800    1.5900
    1.6000    1.6100    1.6200    1.6300    1.6400    1.6500    1.6600    1.6700
    1.6800    1.6900    1.7000    1.7100    1.7200    1.7300    1.7400    1.7500
    1.7600    1.7700    1.7800    1.7900    1.8000    1.8100    1.8200    1.8300
    1.8400    1.8500    1.8600    1.8700    1.8800    1.8900    1.9000    1.9100
    1.9200    1.9300    1.9400    1.9500    1.9600    1.9700    1.9800    1.9900
    2.0000    2.0100    2.0200    2.0300    2.0400    2.0500    2.0600    2.0700
    2.0800    2.0900    2.1000    2.1100    2.1200    2.1300    2.1400    2.1500
    2.1600    2.1700    2.1800    2.1900    2.2000    2.2100    2.2200    2.2300
    2.2400    2.2500    2.2600    2.2700    2.2800    2.2900    2.3000    2.3100
    2.3200    2.3300    2.3400    2.3500    2.3600    2.3700    2.3800    2.3900
    2.4000    2.4100    2.4200    2.4300    2.4400    2.4500    2.4600    2.4700
    2.4800    2.4900    2.5000    2.5100    2.5200    2.5300    2.5400    2.5500
    2.5600    2.5700    2.5800    2.5900    2.6000    2.6100    2.6200    2.6300
    2.6400    2.6500    2.6600    2.6700    2.6800    2.6900    2.7000    2.7100
    2.7200    2.7300    2.7400    2.7500    2.7600    2.7700    2.7800    2.7900
    2.8000    2.8100    2.8200    2.8300    2.8400    2.8500    2.8600    2.8700
    2.8800    2.8900    2.9000    2.9100    2.9200    2.9300    2.9400    2.9500
    2.9600    2.9700    2.9800    2.9900    3.0000    3.0100    3.0200    3.0300
    3.0400    3.0500    3.0600    3.0700    3.0800    3.0900    3.1000    3.1100
    3.1200    3.1300    3.1400    3.1500    3.1600    3.1700    3.1800    3.1900
    3.2000    3.2100    3.2200    3.2300    3.2400    3.2500    3.2600    3.2700
    3.2800    3.2900    3.3000    3.3100    3.3200    3.3300    3.3400    3.3500
    3.3600    3.3700    3.3800    3.3900    3.4000    3.4100    3.4200    3.4300
    3.4400    3.4500    3.4600    3.4700    3.4800    3.4900    3.5000    3.5100
    3.5200    3.5300    3.5400    3.5500    3.5600    3.5700    3.5800    3.5900
    3.6000    3.6100    3.6200    3.6300    3.6400    3.6500    3.6600    3.6700
    3.6800    3.6900    3.7000    3.7100    3.7200    3.7300    3.7400    3.7500
    3.7600    3.7700    3.7800    3.7900    3.8000    3.8100    3.8200    3.8300
    3.8400    3.8500    3.8600    3.8700    3.8800    3.8900    3.9000    3.9100
    3.9200    3.9300    3.9400    3.9500    3.9600    3.9700    3.9800    3.9900
    4.0000    4.0100    4.0200    4.0300    4.0400    4.0500    4.0600    4.0700
    4.0800    4.0900    4.1000    4.1100    4.1200    4.1300    4.1400    4.1500
    4.1600    4.1700    4.1800    4.1900    4.2000    4.2100    4.2200    4.2300
    4.2400    4.2500    4.2600    4.2700    4.2800    4.2900    4.3000    4.3100
    4.3200    4.3300    4.3400    4.3500    4.3600    4.3700    4.3800    4.3900
    4.4000    4.4100    4.4200    4.4300    4.4400    4.4500    4.4600    4.4700
    4.4800    4.4900    4.5000    4.5100    4.5200    4.5300    4.5400    4.5500
    4.5600    4.5700    4.5800    4.5900    4.6000    4.6100    4.6200    4.6300
    4.6400    4.6500    4.6600    4.6700    4.6800    4.6900    4.7000    4.7100
    4.7200    4.7300    4.7400    4.7500    4.7600    4.7700    4.7800    4.7900
    4.8000    4.8100    4.8200    4.8300    4.8400    4.8500    4.8600    4.8700
    4.8800    4.8900    4.9000    4.9100    4.9200    4.9300    4.9400    4.9500
    4.9600    4.9700    4.9800    4.9900    5.0000    5.0100    5.0200    5.0300
    5.0400    5.0500    5.0600    5.0700    5.0800    5.0900    5.1000    5.1100
    5.1200    5.1300    5.1400    5.1500    5.1600    5.1700    5.1800    5.1900
    5.2000    5.2100    5.2200    5.2300    5.2400    5.2500    5.2600    5.2700
    5.2800    5.2900    5.3000    5.3100    5.3200    5.3300    5.3400    5.3500
    5.3600    5.3700    5.3800    5.3900    5.4000    5.4100    5.4200    5.4300
    5.4400    5.4500    5.4600    5.4700    5.4800    5.4900    5.5000    5.5100
    5.5200    5.5300    5.5400    5.5500    5.5600    5.5700    5.5800    5.5900
    5.6000    5.6100    5.6200    5.6300    5.6400    5.6500    5.6600    5.6700
    5.6800    5.6900    5.7000    5.7100    5.7200    5.7300    5.7400    5.7500
    5.7600    5.7700    5.7800    5.7900    5.8000    5.8100    5.8200    5.8300
    5.8400    5.8500    5.8600    5.8700    5.8800    5.8900    5.9000    5.9100
    5.9200    5.9300    5.9400    5.9500    5.9600    5.9700    5.9800    5.9900
    6.0000    6.0100    6.0200    6.0300    6.0400    6.0500    6.0600    6.0700
    6.0800    6.0900    6.1000    6.1100    6.1200    6.1300    6.1400    6.1500
    6.1600    6.1700    6.1800    6.1900    6.2000    6.2100    6.2200    6.2300
    6.2400    6.2500    6.2600    6.2700    6.2800    6.2900    6.3000    6.3100
    6.3200    6.3300    6.3400    6.3500    6.3600    6.3700    6.3800    6.3900
    6.4000    6.4100    6.4200    6.4300    6.4400    6.4500    6.4600    6.4700
    6.4800    6.4900    6.5000    6.5100    6.5200    6.5300    6.5400    6.5500
    6.5600    6.5700    6.5800    6.5900    6.6000    6.6100    6.6200    6.6300
    6.6400    6.6500    6.6600    6.6700    6.6800    6.6900    6.7000    6.7100
    6.7200    6.7300    6.7400    6.7500    6.7600    6.7700    6.7800    6.7900
    6.8000    6.8100    6.8200    6.8300    6.8400    6.8500    6.8600    6.8700
    6.8800    6.8900    6.9000    6.9100    6.9200    6.9300    6.9400    6.9500
    6.9600    6.9700    6.9800    6.9900    7.0000    7.0100    7.0200    7.0300
    7.0400    7.0500    7.0600    7.0700    7.0800    7.0900    7.1000    7.1100
    7.1200    7.1300    7.1400    7.1500    7.1600    7.1700    7.1800    7.1900
    7.2000    7.2100    7.2200    7.2300    7.2400    7.2500    7.2600    7.2700
    7.2800    7.2900    7.3000    7.3100    7.3200    7.3300    7.3400    7.3500
    7.3600    7.3700    7.3800    7.3900    7.4000    7.4100    7.4200    7.4300
    7.4400    7.4500    7.4600    7.4700    7.4800    7.4900    7.5000    7.5100
    7.5200    7.5300    7.5400    7.5500    7.5600    7.5700    7.5800    7.5900
    7.6000    7.6100    7.6200    7.6300    7.6400    7.6500    7.6600    7.6700
    7.6800    7.6900    7.7000    7.7100    7.7200    7.7300    7.7400    7.7500
    7.7600    7.7700    7.7800    7.7900    7.8000    7.8100    7.8200    7.8300
    7.8400    7.8500    7.8600    7.8700    7.8800    7.8900    7.9000    7.9100
    7.9200    7.9300    7.9400    7.9500    7.9600    7.9700    7.9800    7.9900
    8.0000    8.0100    8.0200    8.0300    8.0400    8.0500    8.0600    8.0700
    8.0800    8.0900    8.1000    8.1100    8.1200    8.1300    8.1400    8.1500
    8.1600    8.1700    8.1800    8.1900    8.2000    8.2100    8.2200    8.2300
    8.2400    8.2500    8.2600    8.2700    8.2800    8.2900    8.3000    8.3100
    8.3200    8.3300    8.3400    8.3500    8.3600    8.3700    8.3800    8.3900
    8.4000    8.4100    8.4200    8.4300    8.4400    8.4500    8.4600    8.4700
    8.4800    8.4900    8.5000    8.5100    8.5200    8.5300    8.5400    8.5500
    8.5600    8.5700    8.5800    8.5900    8.6000    8.6100    8.6200    8.6300
    8.6400    8.6500    8.6600    8.6700    8.6800    8.6900    8.7000    8.7100
    8.7200    8.7300    8.7400    8.7500    8.7600    8.7700    8.7800    8.7900
    8.8000    8.8100    8.8200    8.8300    8.8400    8.8500    8.8600    8.8700
    8.8800    8.8900    8.9000    8.9100    8.9200    8.9300    8.9400    8.9500
    8.9600    8.9700    8.9800    8.9900    9.0000    9.0100    9.0200    9.0300
    9.0400    9.0500    9.0600    9.0700    9.0800    9.0900    9.1000    9.1100
    9.1200    9.1300    9.1400    9.1500    9.1600    9.1700    9.1800    9.1900
    9.2000    9.2100    9.2200    9.2300    9.2400    9.2500    9.2600    9.2700
    9.2800    9.2900    9.3000    9.3100    9.3200    9.3300    9.3400    9.3500
    9.3600    9.3700
   </PP_R>
   <PP_RAB type="real"  size=" 938" columns="8">
    0.0100    0.0100    0.0100    0.0100    0.0100    0.0100    0.0100    0.0100
    0.0100    0.0100    0.0100    0.0100    0.0100    0.0100    0.0100    0.0100
    0.0100    0.0100    0.0100    0.0100    0.0100    0.0100    0.0100    0.0100
    0.0100    0.0100    0.0100    0.0100    0.0100    0.0100    0.0100    0.0100
    0.0100    0.0100    0.0100    0.0100    0.0100    0.0100    0.0100    0.0100
    0.0100    0.0100    0.0100    0.0100    0.0100    0.0100    0.0100    0.0100
    0.0100    0.0100    0.0100    0.0100    0.0100    0.0100    0.0100    0.0100
    0.0100    0.0100    0.0100    0.0100    0.0100    0.0100    0.0100    0.0100
    0.0100    0.0100    0.0100    0.0100    0.0100    0.0100    0.0100    0.0100
    0.0100    0.0100    0.0100    0.0100    0.0100    0.0100    0.0100    0.0100
    0.0100    0.0100    0.0100    0.0100    0.0100    0.0100    0.0100    0.0100
    0.0100    0.0100    0.0100    0.0100    0.0100    0.0100    0.0100    0.0100
    0.0100    0.0100    0.0100    0.0100    0.0100    0.0100    0.0100    0.0100
    0.0100    0.0100    0.0100    0.0100    0.0100    0.0100    0.0100    0.0100
    0.0100    0.0100    0.0100    0.0100    0.0100    0.0100    0.0100    0.0100
    0.0100    0.0100    0.0100    0.0100    0.0100    0.0100    0.0100    0.0100
    0.0100    0.0100    0.0100    0.0100    0.0100    0.0100    0.0100    0.0100
    0.0100    0.0100    0.0100    0.0100    0.0100    0.0100    0.0100    0.0100
    0.0100    0.0100    0.0100    0.0100    0.0100    0.0100    0.0100    0.0100
    0.0100    0.0100    0.0100    0.0100    0.0100    0.0100    0.0100    0.0100
    0.0100    0.0100    0.0100    0.0100    0.0100    0.0100    0.0100    0.0100
    0.0100    0.0100    0.0100    0.0100    0.0100    0.0100    0.0100    0.0100
    0.0100    0.0100    0.0100    0.0100    0.0100    0.0100    0.0100    0.0100
    0.0100    0.0100    0.0100    0.0100    0.0100    0.0100    0.0100    0.0100
    0.0100    0.0100    0.0100    0.0100    0.0100    0.0100    0.0100    0.0100
    0.0100    0.0100    0.0100    0.0100    0.0100    0.0100    0.0100    0.0100
    0.0100    0.0100    0.0100    0.0100    0.0100    0.0100    0.0100    0.0100
    0.0100    0.0100    0.0100    0.0100    0.0100    0.0100    0.0100    0.0100
    0.0100    0.0100    0.0100    0.0100    0.0100    0.0100    0.0100    0.0100
    0.0100    0.0100    0.0100    0.0100    0.0100    0.0100    0.0100    0.0100
    0.0100    0.0100    0.0100    0.0100    0.0100    0.0100    0.0100    0.0100
    0.0100    0.0100    0.0100    0.0100    0.0100    0.0100    0.0100    0.0100
    0.0100    0.0100    0.0100    0.0100    0.0100    0.0100    0.0100    0.0100
    0.0100    0.0100    0.0100    0.0100    0.0100    0.0100    0.0100    0.0100
    0.0100    0.0100    0.0100    0.0100    0.0100    0.0100    0.0100    0.0100
    0.0100    0.0100    0.0100    0.0100    0.0100    0.0100    0.0100    0.0100
    0.0100    0.0100    0.0100    0.0100    0.0100    0.0100    0.0100    0.0100
    0.0100    0.0100    0.0100    0.0100    0.0100    0.0100    0.0100    0.0100
    0.0100    0.0100    0.0100    0.0100    0.0100    0.0100    0.0100    0.0100
    0.0100    0.0100    0.0100    0.0100    0.0100    0.0100    0.0100    0.0100
    0.0100    0.0100    0.0100    0.0100    0.0100    0.0100    0.0100    0.0100
    0.0100    0.0100    0.0100    0.0100    0.0100    0.0100    0.0100    0.0100
    0.0100    0.0100    0.0100    0.0100    0.0100    0.0100    0.0100    0.0100
    0.0100    0.0100    0.0100    0.0100    0.0100    0.0100    0.0100    0.0100
    0.0100    0.0100    0.0100    0.0100    0.0100    0.0100    0.0100    0.0100
    0.0100    0.0100    0.0100    0.0100    0.0100    0.0100    0.0100    0.0100
    0.0100    0.0100    0.0100    0.0100    0.0100    0.0100    0.0100    0.0100
    0.0100    0.0100    0.0100    0.0100    0.0100    0.0100    0.0100    0.0100
    0.0100    0.0100    0.0100    0.0100    0.0100    0.0100    0.0100    0.0100
    0.0100    0.0100    0.0100    0.0100    0.0100    0.0100    0.0100    0.0100
    0.0100    0.0100    0.0100    0.0100    0.0100    0.0100    0.0100    0.0100
    0.0100    0.0100    0.0100    0.0100    0.0100    0.0100    0.0100    0.0100
    0.0100    0.0100    0.0100    0.0100    0.0100    0.0100    0.0100    0.0100
    0.0100    0.0100    0.0100    0.0100    0.0100    0.0100    0.0100    0.0100
    0.0100    0.0100    0.0100    0.0100    0.0100    0.0100    0.0100    0.0100
    0.0100    0.0100    0.0100    0.0100    0.0100    0.0100    0.0100    0.0100
    0.0100    0.0100    0.0100    0.0100    0.0100    0.0100    0.0100    0.0100
    0.0100    0.0100    0.0100    0.0100    0.0100    0.0100    0.0100    0.0100
    0.0100    0.0100    0.0100    0.0100    0.0100    0.0100    0.0100    0.0100
    0.0100    0.0100    0.0100    0.0100    0.0100    0.0100    0.0100    0.0100
    0.0100    0.0100    0.0100    0.0100    0.0100    0.0100    0.0100    0.0100
    0.0100    0.0100    0.0100    0.0100    0.0100    0.0100    0.0100    0.0100
    0.0100    0.0100    0.0100    0.0100    0.0100    0.0100    0.0100    0.0100
    0.0100    0.0100    0.0100    0.0100    0.0100    0.0100    0.0100    0.0100
    0.0100    0.0100    0.0100    0.0100    0.0100    0.0100    0.0100    0.0100
    0.0100    0.0100    0.0100    0.0100    0.0100    0.0100    0.0100    0.0100
    0.0100    0.0100    0.0100    0.0100    0.0100    0.0100    0.0100    0.0100
    0.0100    0.0100    0.0100    0.0100    0.0100    0.0100    0.0100    0.0100
    0.0100    0.0100    0.0100    0.0100    0.0100    0.0100    0.0100    0.0100
    0.0100    0.0100    0.0100    0.0100    0.0100    0.0100    0.0100    0.0100
    0.0100    0.0100    0.0100    0.0100    0.0100    0.0100    0.0100    0.0100
    0.0100    0.0100    0.0100    0.0100    0.0100    0.0100    0.0100    0.0100
    0.0100    0.0100    0.0100    0.0100    0.0100    0.0100    0.0100    0.0100
    0.0100    0.0100    0.0100    0.0100    0.0100    0.0100    0.0100    0.0100
    0.0100    0.0100    0.0100    0.0100    0.0100    0.0100    0.0100    0.0100
    0.0100    0.0100    0.0100    0.0100    0.0100    0.0100    0.0100    0.0100
    0.0100    0.0100    0.0100    0.0100    0.0100    0.0100    0.0100    0.0100
    0.0100    0.0100    0.0100    0.0100    0.0100    0.0100    0.0100    0.0100
    0.0100    0.0100    0.0100    0.0100    0.0100    0.0100    0.0100    0.0100
    0.0100    0.0100    0.0100    0.0100    0.0100    0.0100    0.0100    0.0100
    0.0100    0.0100    0.0100    0.0100    0.0100    0.0100    0.0100    0.0100
    0.0100    0.0100    0.0100    0.0100    0.0100    0.0100    0.0100    0.0100
    0.0100    0.0100    0.0100    0.0100    0.0100    0.0100    0.0100    0.0100
    0.0100    0.0100    0.0100    0.0100    0.0100    0.0100    0.0100    0.0100
    0.0100    0.0100    0.0100    0.0100    0.0100    0.0100    0.0100    0.0100
    0.0100    0.0100    0.0100    0.0100    0.0100    0.0100    0.0100    0.0100
    0.0100    0.0100    0.0100    0.0100    0.0100    0.0100    0.0100    0.0100
    0.0100    0.0100    0.0100    0.0100    0.0100    0.0100    0.0100    0.0100
    0.0100    0.0100    0.0100    0.0100    0.0100    0.0100    0.0100    0.0100
    0.0100    0.0100    0.0100    0.0100    0.0100    0.0100    0.0100    0.0100
    0.0100    0.0100    0.0100    0.0100    0.0100    0.0100    0.0100    0.0100
    0.0100    0.0100    0.0100    0.0100    0.0100    0.0100    0.0100    0.0100
    0.0100    0.0100    0.0100    0.0100    0.0100    0.0100    0.0100    0.0100
    0.0100    0.0100    0.0100    0.0100    0.0100    0.0100    0.0100    0.0100
    0.0100    0.0100    0.0100    0.0100    0.0100    0.0100    0.0100    0.0100
    0.0100    0.0100    0.0100    0.0100    0.0100    0.0100    0.0100    0.0100
    0.0100    0.0100    0.0100    0.0100    0.0100    0.0100    0.0100    0.0100
    0.0100    0.0100    0.0100    0.0100    0.0100    0.0100    0.0100    0.0100
    0.0100    0.0100    0.0100    0.0100    0.0100    0.0100    0.0100    0.0100
    0.0100    0.0100    0.0100    0.0100    0.0100    0.0100    0.0100    0.0100
    0.0100    0.0100    0.0100    0.0100    0.0100    0.0100    0.0100    0.0100
    0.0100    0.0100    0.0100    0.0100    0.0100    0.0100    0.0100    0.0100
    0.0100    0.0100    0.0100    0.0100    0.0100    0.0100    0.0100    0.0100
    0.0100    0.0100    0.0100    0.0100    0.0100    0.0100    0.0100    0.0100
    0.0100    0.0100    0.0100    0.0100    0.0100    0.0100    0.0100    0.0100
    0.0100    0.0100    0.0100    0.0100    0.0100    0.0100    0.0100    0.0100
    0.0100    0.0100    0.0100    0.0100    0.0100    0.0100    0.0100    0.0100
    0.0100    0.0100    0.0100    0.0100    0.0100    0.0100    0.0100    0.0100
    0.0100    0.0100    0.0100    0.0100    0.0100    0.0100    0.0100    0.0100
    0.0100    0.0100    0.0100    0.0100    0.0100    0.0100    0.0100    0.0100
    0.0100    0.0100    0.0100    0.0100    0.0100    0.0100    0.0100    0.0100
    0.0100    0.0100    0.0100    0.0100    0.0100    0.0100    0.0100    0.0100
    0.0100    0.0100    0.0100    0.0100    0.0100    0.0100    0.0100    0.0100
    0.0100    0.0100    0.0100    0.0100    0.0100    0.0100    0.0100    0.0100
    0.0100    0.0100    0.0100    0.0100    0.0100    0.0100    0.0100    0.0100
    0.0100    0.0100    0.0100    0.0100    0.0100    0.0100    0.0100    0.0100
    0.0100    0.0100    0.0100    0.0100    0.0100    0.0100    0.0100    0.0100
    0.0100    0.0100
   </PP_RAB>
 </PP_MESH>
  <PP_LOCAL type="real"  size=" 938" columns="4">
   -2.2658767667E+01   -2.3651760077E+01   -2.3810532766E+01   -2.3797219587E+01
   -2.3766324696E+01   -2.3730647359E+01   -2.3692479927E+01   -2.3653096351E+01
   -2.3613548666E+01   -2.3574751107E+01   -2.3537494343E+01   -2.3502449216E+01
   -2.3470163742E+01   -2.3441054163E+01   -2.3415392077E+01   -2.3393290449E+01
   -2.3374691336E+01   -2.3359357963E+01   -2.3346873255E+01   -2.3336646299E+01
   -2.3327927449E+01   -2.3319831931E+01   -2.3311371074E+01   -2.3301489507E+01
   -2.3289106214E+01   -2.3273156966E+01   -2.3252635619E+01   -2.3226631918E+01
   -2.3194363809E+01   -2.3155202751E+01   -2.3108691077E+01   -2.3054551005E+01
   -2.2992685435E+01   -2.2923171062E+01   -2.2846244742E+01   -2.2762284237E+01
   -2.2671784725E+01   -2.2575332502E+01   -2.2473577398E+01   -2.2367205375E+01
   -2.2256912668E+01   -2.2143382663E+01   -2.2027266400E+01   -2.1909167316E+01
   -2.1789630456E+01   -2.1669136061E+01   -2.1548097162E+01   -2.1426860542E+01
   -2.1305710370E+01   -2.1184873693E+01   -2.1064527067E+01   -2.0944803665E+01
   -2.0825800333E+01   -2.0707584204E+01   -2.0590198623E+01   -2.0473668221E+01
   -2.0358003102E+01   -2.0243202160E+01   -2.0129255581E+01   -2.0016146633E+01
   -1.9903852841E+01   -1.9792346669E+01   -1.9681595802E+01   -1.9571563143E+01
   -1.9462206618E+01   -1.9353478875E+01   -1.9245326952E+01   -1.9137692008E+01
   -1.9030509154E+01   -1.8923707472E+01   -1.8817210238E+01   -1.8710935408E+01
   -1.8604796384E+01   -1.8498703050E+01   -1.8392563093E+01   -1.8286283553E+01
   -1.8179772581E+01   -1.8072941322E+01   -1.7965705865E+01   -1.7857989159E+01
   -1.7749722835E+01   -1.7640848825E+01   -1.7531320718E+01   -1.7421104788E+01
   -1.7310180660E+01   -1.7198541575E+01   -1.7086194271E+01   -1.6973158489E+01
   -1.6859466152E+01   -1.6745160262E+01   -1.6630293579E+01   -1.6514927156E+01
   -1.6399128792E+01   -1.6282971470E+01   -1.6166531831E+01   -1.6049888746E+01
   -1.5933122002E+01   -1.5816311148E+01   -1.5699534499E+01   -1.5582868317E+01
   -1.5466386156E+01   -1.5350158369E+01   -1.5234251758E+01   -1.5118729360E+01
   -1.5003650337E+01   -1.4889069962E+01   -1.4775039681E+01   -1.4661607232E+01
   -1.4548816800E+01   -1.4436709216E+01   -1.4325322159E+01   -1.4214690370E+01
   -1.4104845875E+01   -1.3995818191E+01   -1.3887634527E+01   -1.3780319976E+01
   -1.3673897687E+01   -1.3568389018E+01   -1.3463813683E+01   -1.3360189871E+01
   -1.3257534353E+01   -1.3155862580E+01   -1.3055188751E+01   -1.2955525888E+01
   -1.2856885879E+01   -1.2759279522E+01   -1.2662716558E+01   -1.2567205692E+01
   -1.2472754604E+01   -1.2379369964E+01   -1.2287057425E+01   -1.2195821629E+01
   -1.2105666191E+01   -1.2016593696E+01   -1.1928605678E+01   -1.1841702608E+01
   -1.1755883874E+01   -1.1671147760E+01   -1.1587491427E+01   -1.1504910885E+01
   -1.1423400977E+01   -1.1342955349E+01   -1.1263566428E+01   -1.1185225399E+01
   -1.1107922177E+01   -1.1031645383E+01   -1.0956382320E+01   -1.0882118951E+01
   -1.0808839859E+01   -1.0736528272E+01   -1.0665165987E+01   -1.0594733236E+01
   -1.0525209152E+01   -1.0456572521E+01   -1.0388802269E+01   -1.0321878339E+01
   -1.0255784471E+01   -1.0190508831E+01   -1.0126045117E+01   -1.0062389427E+01
   -9.9995314953E+00   -9.9374561056E+00   -9.8761461617E+00   -9.8155843808E+00
   -9.7557581994E+00   -9.6966567174E+00   -9.6382664960E+00   -9.5805739887E+00
   -9.5235669515E+00   -9.4672334551E+00   -9.4115616321E+00   -9.3565399046E+00
   -9.3021569916E+00   -9.2484018674E+00   -9.1952637551E+00   -9.1427321225E+00
   -9.0907966749E+00   -9.0394473482E+00   -8.9886743028E+00   -8.9384679169E+00
   -8.8888187811E+00   -8.8397176919E+00   -8.7911556468E+00   -8.7431238383E+00
   -8.6956136490E+00   -8.6486166464E+00   -8.6021245780E+00   -8.5561293667E+00
   -8.5106231056E+00   -8.4655980546E+00   -8.4210466349E+00   -8.3769614257E+00
   -8.3333351597E+00   -8.2901607194E+00   -8.2474311330E+00   -8.2051395711E+00
   -8.1632793427E+00   -8.1218438919E+00   -8.0808267948E+00   -8.0402217555E+00
   -8.0000226039E+00   -7.9602232918E+00   -7.9208178904E+00   -7.8818005868E+00
   -7.8431656821E+00   -7.8049075878E+00   -7.7670208236E+00   -7.7295000146E+00
   -7.6923398890E+00   -7.6555352754E+00   -7.6190811007E+00   -7.5829723874E+00
   -7.5472042520E+00   -7.5117719021E+00   -7.4766706347E+00   -7.4418958340E+00
   -7.4074429696E+00   -7.3733075942E+00   -7.3394853420E+00   -7.3059719267E+00
   -7.2727631397E+00   -7.2398548486E+00   -7.2072429951E+00   -7.1749235935E+00
   -7.1428927293E+00   -7.1111465573E+00   -7.0796813004E+00   -7.0484932479E+00
   -7.0175787538E+00   -6.9869342362E+00   -6.9565561749E+00   -6.9264411108E+00
   -6.8965856443E+00   -6.8669864343E+00   -6.8376401963E+00   -6.8085437020E+00
   -6.7796937776E+00   -6.7510873029E+00   -6.7227212099E+00   -6.6945924821E+00
   -6.6666981531E+00   -6.6390353056E+00   -6.6116010708E+00   -6.5843926268E+00
   -6.5574071980E+00   -6.5306420540E+00   -6.5040945090E+00   -6.4777619203E+00
   -6.4516416881E+00   -6.4257312543E+00   -6.4000281016E+00   -6.3745297528E+00
   -6.3492337701E+00   -6.3241377541E+00   -6.2992393432E+00   -6.2745362128E+00
   -6.2500260749E+00   -6.2257066766E+00   -6.2015758003E+00   -6.1776312624E+00
   -6.1538709131E+00   -6.1302926354E+00   -6.1068943445E+00   -6.0836739876E+00
   -6.0606295428E+00   -6.0377590187E+00   -6.0150604538E+00   -5.9925319162E+00
   -5.9701715026E+00   -5.9479773381E+00   -5.9259475755E+00   -5.9040803950E+00
   -5.8823740034E+00   -5.8608266340E+00   -5.8394365455E+00   -5.8182020223E+00
   -5.7971213734E+00   -5.7761929325E+00   -5.7554150570E+00   -5.7347861280E+00
   -5.7143045496E+00   -5.6939687487E+00   -5.6737771746E+00   -5.6537282984E+00
   -5.6338206127E+00   -5.6140526313E+00   -5.5944228889E+00   -5.5749299404E+00
   -5.5555723609E+00   -5.5363487453E+00   -5.5172577078E+00   -5.4982978815E+00
   -5.4794679185E+00   -5.4607664891E+00   -5.4421922817E+00   -5.4237440026E+00
   -5.4054203756E+00   -5.3872201414E+00   -5.3691420580E+00   -5.3511848997E+00
   -5.3333474574E+00   -5.3156285378E+00   -5.2980269637E+00   -5.2805415731E+00
   -5.2631712195E+00   -5.2459147715E+00   -5.2287711124E+00   -5.2117391399E+00
   -5.1948177663E+00   -5.1780059178E+00   -5.1613025344E+00   -5.1447065700E+00
   -5.1282169916E+00   -5.1118327796E+00   -5.0955529273E+00   -5.0793764408E+00
   -5.0633023389E+00   -5.0473296525E+00   -5.0314574250E+00   -5.0156847115E+00
   -5.0000105792E+00   -4.9844341068E+00   -4.9689543843E+00   -4.9535705133E+00
   -4.9382816061E+00   -4.9230867861E+00   -4.9079851877E+00   -4.8929759555E+00
   -4.8780582447E+00   -4.8632312207E+00   -4.8484940592E+00   -4.8338459457E+00
   -4.8192860755E+00   -4.8048136537E+00   -4.7904278948E+00   -4.7761280227E+00
   -4.7619132705E+00   -4.7477828805E+00   -4.7337361040E+00   -4.7197722009E+00
   -4.7058904401E+00   -4.6920900988E+00   -4.6783704629E+00   -4.6647308265E+00
   -4.6511704919E+00   -4.6376887695E+00   -4.6242849777E+00   -4.6109584427E+00
   -4.5977084985E+00   -4.5845344868E+00   -4.5714357566E+00   -4.5584116646E+00
   -4.5454615746E+00   -4.5325848577E+00   -4.5197808920E+00   -4.5070490627E+00
   -4.4943887620E+00   -4.4817993888E+00   -4.4692803486E+00   -4.4568310537E+00
   -4.4444509229E+00   -4.4321393815E+00   -4.4198958608E+00   -4.4077197989E+00
   -4.3956106397E+00   -4.3835678333E+00   -4.3715908357E+00   -4.3596791092E+00
   -4.3478321214E+00   -4.3360493461E+00   -4.3243302627E+00   -4.3126743560E+00
   -4.3010811166E+00   -4.2895500404E+00   -4.2780806287E+00   -4.2666723883E+00
   -4.2553248310E+00   -4.2440374740E+00   -4.2328098394E+00   -4.2216414544E+00
   -4.2105318514E+00   -4.1994805674E+00   -4.1884871444E+00   -4.1775511292E+00
   -4.1666720733E+00   -4.1558495327E+00   -4.1450830683E+00   -4.1343722453E+00
   -4.1237166335E+00   -4.1131158071E+00   -4.1025693446E+00   -4.0920768288E+00
   -4.0816378471E+00   -4.0712519905E+00   -4.0609188547E+00   -4.0506380392E+00
   -4.0404091476E+00   -4.0302317875E+00   -4.0201055705E+00   -4.0100301120E+00
   -4.0000050313E+00   -3.9900299515E+00   -3.9801044995E+00   -3.9702283058E+00
   -3.9604010045E+00   -3.9506222336E+00   -3.9408916344E+00   -3.9312088518E+00
   -3.9215735342E+00   -3.9119853335E+00   -3.9024439048E+00   -3.8929489067E+00
   -3.8835000012E+00   -3.8740968534E+00   -3.8647391317E+00   -3.8554265078E+00
   -3.8461586564E+00   -3.8369352553E+00   -3.8277559856E+00   -3.8186205312E+00