Nb    ONCVPSP-3.3.0  r_core=   1.50879   1.40458   1.40458
     41.0000     13.0000      220117    zatom,zion,pspd
     8      11   2     4   600     0    pspcod,pspxc,lmax,lloc,mmax,r2well
  5.99000000  0.00000000  0.00000000    rchrg fchrg qchrg
     2     2     2     0     0    nproj
     1     1           extension_switch
   0                         1.2947070128130D+01  1.3411368766578D+00
     1  0.0000000000000D+00  1.3653700392524D-10 -3.4719793706728D-10
     2  1.0000000000000D-02  5.0935740420517D-02 -1.5706089408877D-02
     3  2.0000000000000D-02  1.0184672647490D-01 -3.1445597354912D-02
     4  3.0000000000000D-02  1.5270781163343D-01 -4.7250911413387D-02
     5  4.0000000000000D-02  2.0349306929607D-01 -6.3152367903997D-02
     6  5.0000000000000D-02  2.5417541336473D-01 -7.9177252845080D-02
     7  6.0000000000000D-02  3.0472623144729D-01 -9.5348834559555D-02
     8  7.0000000000000D-02  3.5511503474317D-01 -1.1168543807374D-01
     9  8.0000000000000D-02  4.0530912852314D-01 -1.2819957110295D-01
    10  9.0000000000000D-02  4.5527330694795D-01 -1.4489711098840D-01
    11  1.0000000000000D-01  5.0496957576961D-01 -1.6177656144105D-01
    12  1.1000000000000D-01  5.5435690623012D-01 -1.7882838736397D-01
    13  1.2000000000000D-01  6.0339102321453D-01 -1.9603443536852D-01
    14  1.3000000000000D-01  6.5202423043122D-01 -2.1336744687759D-01
    15  1.4000000000000D-01  7.0020527508478D-01 -2.3079066992397D-01
    16  1.5000000000000D-01  7.4787925417663D-01 -2.4825757491260D-01
    17  1.6000000000000D-01  7.9498756421939D-01 -2.6571167872417D-01
    18  1.7000000000000D-01  8.4146789578492D-01 -2.8308648060486D-01
    19  1.8000000000000D-01  8.8725427392562D-01 -3.0030551231658D-01
    20  1.9000000000000D-01  9.3227714511659D-01 -3.1728250402280D-01
    21  2.0000000000000D-01  9.7646351096665D-01 -3.3392166636455D-01
    22  2.1000000000000D-01  1.0197371085405D+00 -3.5011808814625D-01
    23  2.2000000000000D-01  1.0620186367267D+00 -3.6575824801066D-01
    24  2.3000000000000D-01  1.1032260276795D+00 -3.8072063744404D-01
    25  2.4000000000000D-01  1.1432747619594D+00 -3.9487649142532D-01
    26  2.5000000000000D-01  1.1820782256032D+00 -4.0809062202399D-01
    27  2.6000000000000D-01  1.2195481069675D+00 -4.2022234927061D-01
    28  2.7000000000000D-01  1.2555948308195D+00 -4.3112652267743D-01
    29  2.8000000000000D-01  1.2901280267943D+00 -4.4065462588440D-01
    30  2.9000000000000D-01  1.3230570290013D+00 -4.4865595605438D-01
    31  3.0000000000000D-01  1.3542914032517D+00 -4.5497886884990D-01
    32  3.1000000000000D-01  1.3837414980888D+00 -4.5947207909722D-01
    33  3.2000000000000D-01  1.4113190155463D+00 -4.6198600659144D-01
    34  3.3000000000000D-01  1.4369375973262D+00 -4.6237415592272D-01
    35  3.4000000000000D-01  1.4605134218948D+00 -4.6049451871675D-01
    36  3.5000000000000D-01  1.4819658078278D+00 -4.5621098628532D-01
    37  3.6000000000000D-01  1.5012178186119D+00 -4.4939476038232D-01
    38  3.7000000000000D-01  1.5181968640184D+00 -4.3992574955837D-01
    39  3.8000000000000D-01  1.5328352931139D+00 -4.2769393850936D-01
    40  3.9000000000000D-01  1.5450709739621D+00 -4.1260071782045D-01
    41  4.0000000000000D-01  1.5548478550979D+00 -3.9456016162130D-01
    42  4.1000000000000D-01  1.5621165039250D+00 -3.7350024089009D-01
    43  4.2000000000000D-01  1.5668346172969D+00 -3.4936396047358D-01
    44  4.3000000000000D-01  1.5689674996909D+00 -3.2211040832715D-01
    45  4.4000000000000D-01  1.5684885045717D+00 -2.9171570602067D-01
    46  4.5000000000000D-01  1.5653794347686D+00 -2.5817385019949D-01
    47  4.6000000000000D-01  1.5596308979549D+00 -2.2149743543316D-01
    48  4.7000000000000D-01  1.5512426136137D+00 -1.8171824971976D-01
    49  4.8000000000000D-01  1.5402236682079D+00 -1.3888773483972D-01
    50  4.9000000000000D-01  1.5265927156351D+00 -9.3077304758015D-02
    51  5.0000000000000D-01  1.5103781204362D+00 -4.4378516356545D-02
    52  5.1000000000000D-01  1.4916180416447D+00  7.0969120754400D-03
    53  5.2000000000000D-01  1.4703604556008D+00  6.1217237957649D-02
    54  5.3000000000000D-01  1.4466631165106D+00  1.1783098925377D-01
    55  5.4000000000000D-01  1.4205934540038D+00  1.7676741784471D-01
    56  5.5000000000000D-01  1.3922284074269D+00  2.3783711093890D-01
    57  5.6000000000000D-01  1.3616541970973D+00  3.0083275868254D-01
    58  5.7000000000000D-01  1.3289660332424D+00  3.6553007479118D-01
    59  5.8000000000000D-01  1.2942677638389D+00  4.3168886568677D-01
    60  5.9000000000000D-01  1.2576714630559D+00  4.9905424231009D-01
    61  6.0000000000000D-01  1.2192969624900D+00  5.6735796748785D-01
    62  6.1000000000000D-01  1.1792713278420D+00  6.3631993049170D-01
    63  6.2000000000000D-01  1.1377282841398D+00  7.0564973923276D-01
    64  6.3000000000000D-01  1.0948075930386D+00  7.7504841940840D-01
    65  6.4000000000000D-01  1.0506543861329D+00  8.4421020886942D-01
    66  6.5000000000000D-01  1.0054184585920D+00  9.1282443450708D-01
    67  6.6000000000000D-01  9.5925352777251D-01  9.8057745809478D-01
    68  6.7000000000000D-01  9.1231646176876D-01  1.0471546767535D+00
    69  6.8000000000000D-01  8.6476648313207D-01  1.1122425630606D+00
    70  6.9000000000000D-01  8.1676435321879D-01  1.1755307292937D+00
    71  7.0000000000000D-01  7.6847154281068D-01  1.2367139998966D+00
    72  7.1000000000000D-01  7.2004939479254D-01  1.2954944759902D+00
    73  7.2000000000000D-01  6.7165828476490D-01  1.3515835756113D+00
    74  7.3000000000000D-01  6.2345678551499D-01  1.4047040333756D+00
    75  7.4000000000000D-01  5.7560084126595D-01  1.4545918434056D+00
    76  7.5000000000000D-01  5.2824295757292D-01  1.5009981296520D+00
    77  7.6000000000000D-01  4.8153141263336D-01  1.5436909281713D+00
    78  7.7000000000000D-01  4.3560949563073D-01  1.5824568664841D+00
    79  7.8000000000000D-01  3.9061477753476D-01  1.6171027258455D+00
    80  7.9000000000000D-01  3.4667841954067D-01  1.6474568730866D+00
    81  8.0000000000000D-01  3.0392452404468D-01  1.6733705496418D+00
    82  8.1000000000000D-01  2.6246953272766D-01  1.6947190064453D+00
    83  8.2000000000000D-01  2.2242167595408D-01  1.7114024745560D+00
    84  8.3000000000000D-01  1.8388047729404D-01  1.7233469626440D+00
    85  8.4000000000000D-01  1.4693631654452D-01  1.7305048738260D+00
    86  8.5000000000000D-01  1.1167005416690D-01  1.7328554357740D+00
    87  8.6000000000000D-01  7.8152719573843D-02  1.7304049395105D+00
    88  8.7000000000000D-01  4.6445265196345D-02  1.7231867838436D+00
    89  8.8000000000000D-01  1.6598387743316D-02  1.7112613239721D+00
    90  8.9000000000000D-01 -1.1347582461897D-02  1.6947155243773D+00
    91  9.0000000000000D-01 -3.7362723717469D-02  1.6736624177195D+00
    92  9.1000000000000D-01 -6.1427496935036D-02  1.6482403730362D+00
    93  9.2000000000000D-01 -8.3532652101020D-02  1.6186121781014D+00
    94  9.3000000000000D-01 -1.0367906844112D-01  1.5849639423174D+00
    95  9.4000000000000D-01 -1.2187753002803D-01  1.5475038279736D+00
    96  9.5000000000000D-01 -1.3814843905968D-01  1.5064606190934D+00
    97  9.6000000000000D-01 -1.5252146949930D-01  1.4620821383973D+00
    98  9.7000000000000D-01 -1.6503516420414D-01  1.4146335241133D+00
    99  9.8000000000000D-01 -1.7573647907472D-01  1.3643953794707D+00
   100  9.9000000000000D-01 -1.8468027812498D-01  1.3116618086846D+00
   101  1.0000000000000D+00 -1.9192878369755D-01  1.2567383540751D+00
   102  1.0100000000000D+00 -1.9755098634578D-01  1.1999398496977D+00
   103  1.0200000000000D+00 -2.0162201913696D-01  1.1415882073934D+00
   104  1.0300000000000D+00 -2.0422250133032D-01  1.0820101515876D+00
   105  1.0400000000000D+00 -2.0543785652942D-01  1.0215349194146D+00
   106  1.0500000000000D+00 -2.0535761050210D-01  9.6049194281460D-01
   107  1.0600000000000D+00 -2.0407467390978D-01  8.9920852920973D-01
   108  1.0700000000000D+00 -2.0168461518175D-01  8.3800755709903D-01
   109  1.0800000000000D+00 -1.9828492871181D-01  7.7720520253171D-01
   110  1.0900000000000D+00 -1.9397430345061D-01  7.1710871186655D-01
   111  1.1000000000000D+00 -1.8885189679631D-01  6.5801423546614D-01
   112  1.1100000000000D+00 -1.8301661852509D-01  6.0020473628585D-01
   113  1.1200000000000D+00 -1.7656642920453D-01  5.4394798612918D-01
   114  1.1300000000000D+00 -1.6959765728538D-01  4.8949466139620D-01
   115  1.1400000000000D+00 -1.6220433868166D-01  4.3707654871373D-01
   116  1.1500000000000D+00 -1.5447758239802D-01  3.8690486990978D-01
   117  1.1600000000000D+00 -1.4650496523998D-01  3.3916873390928D-01
   118  1.1700000000000D+00 -1.3836995830062D-01  2.9403372192604D-01
   119  1.1800000000000D+00 -1.3015138740494D-01  2.5164061053572D-01
   120  1.1900000000000D+00 -1.2192292938540D-01  2.1210423614016D-01
   121  1.2000000000000D+00 -1.1375264537828D-01  1.7551250199314D-01
   122  1.2100000000000D+00 -1.0570255193593D-01  1.4192552763620D-01
   123  1.2200000000000D+00 -9.7828229646039D-02  1.1137493558580D-01
   124  1.2300000000000D+00 -9.0178473433707D-02  8.3863294375369D-02
   125  1.2400000000000D+00 -8.2794963518011D-02  5.9363610422670D-02
   126  1.2500000000000D+00 -7.5712059790014D-02  3.7819381658004D-02
   127  1.2600000000000D+00 -6.8956357481745D-02  1.9143390174544D-02
   128  1.2700000000000D+00 -6.2546758453797D-02  3.2190556173815D-03
   129  1.2800000000000D+00 -5.6495490262462D-02 -1.0093363675298D-02
   130  1.2900000000000D+00 -5.0809387786631D-02 -2.0949924789309D-02
   131  1.3000000000000D+00 -4.5490962274053D-02 -2.9517584974576D-02
   132  1.3100000000000D+00 -4.0538592222443D-02 -3.5973587678992D-02
   133  1.3200000000000D+00 -3.5947019699367D-02 -4.0503277933646D-02
   134  1.3300000000000D+00 -3.1707818191409D-02 -4.3298128466522D-02
   135  1.3400000000000D+00 -2.7809885053591D-02 -4.4553692390213D-02
   136  1.3500000000000D+00 -2.4239939068225D-02 -4.4467570875481D-02
   137  1.3600000000000D+00 -2.0983025503799D-02 -4.3237373777886D-02
   138  1.3700000000000D+00 -1.8023021780538D-02 -4.1058699911084D-02
   139  1.3800000000000D+00 -1.5343138496765D-02 -3.8123154575728D-02
   140  1.3900000000000D+00 -1.2926410829948D-02 -3.4616421145413D-02
   141  1.4000000000000D+00 -1.0756175013667D-02 -3.0716404499945D-02
   142  1.4100000000000D+00 -8.8165254805459D-03 -2.6591460907609D-02
   143  1.4200000000000D+00 -7.0927476967873D-03 -2.2398731017911D-02
   144  1.4300000000000D+00 -5.5717224884512D-03 -1.8282589772072D-02
   145  1.4400000000000D+00 -4.2422983601364D-03 -1.4373224568783D-02
   146  1.4500000000000D+00 -3.0956264974164D-03 -1.0785360029330D-02
   147  1.4600000000000D+00 -2.1258124306126D-03 -7.6188165378639D-03
   148  1.4700000000000D+00 -1.3287331158258D-03 -4.9507447758512D-03
   149  1.4800000000000D+00 -7.0176579853947D-04 -2.8277148450853D-03
   150  1.4900000000000D+00 -2.5487745333236D-04 -1.3399881373482D-03
   151  1.5000000000000D+00  4.7360909722673D-06 -5.4239886861266D-04
   152  1.5100000000000D+00  8.8974364201630D-05 -2.0324697801363D-04
   153  1.5200000000000D+00  4.5480336521948D-05 -4.7546878784348D-05
   154  1.5300000000000D+00 -9.1653507468305D-06  6.8148816438345D-06
   155  1.5400000000000D+00 -9.7853626267911D-06  5.4086462205667D-06
   156  1.5500000000000D+00  2.3824206558952D-06 -2.2474891200974D-06
   157  1.5600000000000D+00  1.6394635779007D-06 -1.4096409621414D-06
   158  1.5700000000000D+00 -2.2610868970831D-07  5.9776020415730D-07
   159  1.5800000000000D+00 -9.6638260737051D-08  2.5548114290568D-07
   160  1.5900000000000D+00  0.0000000000000D+00  0.0000000000000D+00
   161  1.6000000000000D+00  0.0000000000000D+00  0.0000000000000D+00
   162  1.6100000000000D+00  0.0000000000000D+00  0.0000000000000D+00
   163  1.6200000000000D+00  0.0000000000000D+00  0.0000000000000D+00
   164  1.6300000000000D+00  0.0000000000000D+00  0.0000000000000D+00
   165  1.6400000000000D+00  0.0000000000000D+00  0.0000000000000D+00
   166  1.6500000000000D+00  0.0000000000000D+00  0.0000000000000D+00
   167  1.6600000000000D+00  0.0000000000000D+00  0.0000000000000D+00
   168  1.6700000000000D+00  0.0000000000000D+00  0.0000000000000D+00
   169  1.6800000000000D+00  0.0000000000000D+00  0.0000000000000D+00
   170  1.6900000000000D+00  0.0000000000000D+00  0.0000000000000D+00
   171  1.7000000000000D+00  0.0000000000000D+00  0.0000000000000D+00
   172  1.7100000000000D+00  0.0000000000000D+00  0.0000000000000D+00
   173  1.7200000000000D+00  0.0000000000000D+00  0.0000000000000D+00
   174  1.7300000000000D+00  0.0000000000000D+00  0.0000000000000D+00
   175  1.7400000000000D+00  0.0000000000000D+00  0.0000000000000D+00
   176  1.7500000000000D+00  0.0000000000000D+00  0.0000000000000D+00
   177  1.7600000000000D+00  0.0000000000000D+00  0.0000000000000D+00
   178  1.7700000000000D+00  0.0000000000000D+00  0.0000000000000D+00
   179  1.7800000000000D+00  0.0000000000000D+00  0.0000000000000D+00
   180  1.7900000000000D+00  0.0000000000000D+00  0.0000000000000D+00
   181  1.8000000000000D+00  0.0000000000000D+00  0.0000000000000D+00
   182  1.8100000000000D+00  0.0000000000000D+00  0.0000000000000D+00
   183  1.8200000000000D+00  0.0000000000000D+00  0.0000000000000D+00
   184  1.8300000000000D+00  0.0000000000000D+00  0.0000000000000D+00
   185  1.8400000000000D+00  0.0000000000000D+00  0.0000000000000D+00
   186  1.8500000000000D+00  0.0000000000000D+00  0.0000000000000D+00
   187  1.8600000000000D+00  0.0000000000000D+00  0.0000000000000D+00
   188  1.8700000000000D+00  0.0000000000000D+00  0.0000000000000D+00
   189  1.8800000000000D+00  0.0000000000000D+00  0.0000000000000D+00
   190  1.8900000000000D+00  0.0000000000000D+00  0.0000000000000D+00
   191  1.9000000000000D+00  0.0000000000000D+00  0.0000000000000D+00
   192  1.9100000000000D+00  0.0000000000000D+00  0.0000000000000D+00
   193  1.9200000000000D+00  0.0000000000000D+00  0.0000000000000D+00
   194  1.9300000000000D+00  0.0000000000000D+00  0.0000000000000D+00
   195  1.9400000000000D+00  0.0000000000000D+00  0.0000000000000D+00
   196  1.9500000000000D+00  0.0000000000000D+00  0.0000000000000D+00
   197  1.9600000000000D+00  0.0000000000000D+00  0.0000000000000D+00
   198  1.9700000000000D+00  0.0000000000000D+00  0.0000000000000D+00
   199  1.9800000000000D+00  0.0000000000000D+00  0.0000000000000D+00
   200  1.9900000000000D+00  0.0000000000000D+00  0.0000000000000D+00
   201  2.0000000000000D+00  0.0000000000000D+00  0.0000000000000D+00
   202  2.0100000000000D+00  0.0000000000000D+00  0.0000000000000D+00
   203  2.0200000000000D+00  0.0000000000000D+00  0.0000000000000D+00
   204  2.0300000000000D+00  0.0000000000000D+00  0.0000000000000D+00
   205  2.0400000000000D+00  0.0000000000000D+00  0.0000000000000D+00
   206  2.0500000000000D+00  0.0000000000000D+00  0.0000000000000D+00
   207  2.0600000000000D+00  0.0000000000000D+00  0.0000000000000D+00
   208  2.0700000000000D+00  0.0000000000000D+00  0.0000000000000D+00
   209  2.0800000000000D+00  0.0000000000000D+00  0.0000000000000D+00
   210  2.0900000000000D+00  0.0000000000000D+00  0.0000000000000D+00
   211  2.1000000000000D+00  0.0000000000000D+00  0.0000000000000D+00
   212  2.1100000000000D+00  0.0000000000000D+00  0.0000000000000D+00
   213  2.1200000000000D+00  0.0000000000000D+00  0.0000000000000D+00
   214  2.1300000000000D+00  0.0000000000000D+00  0.0000000000000D+00
   215  2.1400000000000D+00  0.0000000000000D+00  0.0000000000000D+00
   216  2.1500000000000D+00  0.0000000000000D+00  0.0000000000000D+00
   217  2.1600000000000D+00  0.0000000000000D+00  0.0000000000000D+00
   218  2.1700000000000D+00  0.0000000000000D+00  0.0000000000000D+00
   219  2.1800000000000D+00  0.0000000000000D+00  0.0000000000000D+00
   220  2.1900000000000D+00  0.0000000000000D+00  0.0000000000000D+00
   221  2.2000000000000D+00  0.0000000000000D+00  0.0000000000000D+00
   222  2.2100000000000D+00  0.0000000000000D+00  0.0000000000000D+00
   223  2.2200000000000D+00  0.0000000000000D+00  0.0000000000000D+00
   224  2.2300000000000D+00  0.0000000000000D+00  0.0000000000000D+00
   225  2.2400000000000D+00  0.0000000000000D+00  0.0000000000000D+00
   226  2.2500000000000D+00  0.0000000000000D+00  0.0000000000000D+00
   227  2.2600000000000D+00  0.0000000000000D+00  0.0000000000000D+00
   228  2.2700000000000D+00  0.0000000000000D+00  0.0000000000000D+00
   229  2.2800000000000D+00  0.0000000000000D+00  0.0000000000000D+00
   230  2.2900000000000D+00  0.0000000000000D+00  0.0000000000000D+00
   231  2.3000000000000D+00  0.0000000000000D+00  0.0000000000000D+00
   232  2.3100000000000D+00  0.0000000000000D+00  0.0000000000000D+00
   233  2.3200000000000D+00  0.0000000000000D+00  0.0000000000000D+00
   234  2.3300000000000D+00  0.0000000000000D+00  0.0000000000000D+00
   235  2.3400000000000D+00  0.0000000000000D+00  0.0000000000000D+00
   236  2.3500000000000D+00  0.0000000000000D+00  0.0000000000000D+00
   237  2.3600000000000D+00  0.0000000000000D+00  0.0000000000000D+00
   238  2.3700000000000D+00  0.0000000000000D+00  0.0000000000000D+00
   239  2.3800000000000D+00  0.0000000000000D+00  0.0000000000000D+00
   240  2.3900000000000D+00  0.0000000000000D+00  0.0000000000000D+00
   241  2.4000000000000D+00  0.0000000000000D+00  0.0000000000000D+00
   242  2.4100000000000D+00  0.0000000000000D+00  0.0000000000000D+00
   243  2.4200000000000D+00  0.0000000000000D+00  0.0000000000000D+00
   244  2.4300000000000D+00  0.0000000000000D+00  0.0000000000000D+00
   245  2.4400000000000D+00  0.0000000000000D+00  0.0000000000000D+00
   246  2.4500000000000D+00  0.0000000000000D+00  0.0000000000000D+00
   247  2.4600000000000D+00  0.0000000000000D+00  0.0000000000000D+00
   248  2.4700000000000D+00  0.0000000000000D+00  0.0000000000000D+00
   249  2.4800000000000D+00  0.0000000000000D+00  0.0000000000000D+00
   250  2.4900000000000D+00  0.0000000000000D+00  0.0000000000000D+00
   251  2.5000000000000D+00  0.0000000000000D+00  0.0000000000000D+00
   252  2.5100000000000D+00  0.0000000000000D+00  0.0000000000000D+00
   253  2.5200000000000D+00  0.0000000000000D+00  0.0000000000000D+00
   254  2.5300000000000D+00  0.0000000000000D+00  0.0000000000000D+00
   255  2.5400000000000D+00  0.0000000000000D+00  0.0000000000000D+00
   256  2.5500000000000D+00  0.0000000000000D+00  0.0000000000000D+00
   257  2.5600000000000D+00  0.0000000000000D+00  0.0000000000000D+00
   258  2.5700000000000D+00  0.0000000000000D+00  0.0000000000000D+00
   259  2.5800000000000D+00  0.0000000000000D+00  0.0000000000000D+00
   260  2.5900000000000D+00  0.0000000000000D+00  0.0000000000000D+00
   261  2.6000000000000D+00  0.0000000000000D+00  0.0000000000000D+00
   262  2.6100000000000D+00  0.0000000000000D+00  0.0000000000000D+00
   263  2.6200000000000D+00  0.0000000000000D+00  0.0000000000000D+00
   264  2.6300000000000D+00  0.0000000000000D+00  0.0000000000000D+00
   265  2.6400000000000D+00  0.0000000000000D+00  0.0000000000000D+00
   266  2.6500000000000D+00  0.0000000000000D+00  0.0000000000000D+00
   267  2.6600000000000D+00  0.0000000000000D+00  0.0000000000000D+00
   268  2.6700000000000D+00  0.0000000000000D+00  0.0000000000000D+00
   269  2.6800000000000D+00  0.0000000000000D+00  0.0000000000000D+00
   270  2.6900000000000D+00  0.0000000000000D+00  0.0000000000000D+00
   271  2.7000000000000D+00  0.0000000000000D+00  0.0000000000000D+00
   272  2.7100000000000D+00  0.0000000000000D+00  0.0000000000000D+00
   273  2.7200000000000D+00  0.0000000000000D+00  0.0000000000000D+00
   274  2.7300000000000D+00  0.0000000000000D+00  0.0000000000000D+00
   275  2.7400000000000D+00  0.0000000000000D+00  0.0000000000000D+00
   276  2.7500000000000D+00  0.0000000000000D+00  0.0000000000000D+00
   277  2.7600000000000D+00  0.0000000000000D+00  0.0000000000000D+00
   278  2.7700000000000D+00  0.0000000000000D+00  0.0000000000000D+00
   279  2.7800000000000D+00  0.0000000000000D+00  0.0000000000000D+00
   280  2.7900000000000D+00  0.0000000000000D+00  0.0000000000000D+00
   281  2.8000000000000D+00  0.0000000000000D+00  0.0000000000000D+00
   282  2.8100000000000D+00  0.0000000000000D+00  0.0000000000000D+00
   283  2.8200000000000D+00  0.0000000000000D+00  0.0000000000000D+00
   284  2.8300000000000D+00  0.0000000000000D+00  0.0000000000000D+00
   285  2.8400000000000D+00  0.0000000000000D+00  0.0000000000000D+00
   286  2.8500000000000D+00  0.0000000000000D+00  0.0000000000000D+00
   287  2.8600000000000D+00  0.0000000000000D+00  0.0000000000000D+00
   288  2.8700000000000D+00  0.0000000000000D+00  0.0000000000000D+00
   289  2.8800000000000D+00  0.0000000000000D+00  0.0000000000000D+00
   290  2.8900000000000D+00  0.0000000000000D+00  0.0000000000000D+00
   291  2.9000000000000D+00  0.0000000000000D+00  0.0000000000000D+00
   292  2.9100000000000D+00  0.0000000000000D+00  0.0000000000000D+00
   293  2.9200000000000D+00  0.0000000000000D+00  0.0000000000000D+00
   294  2.9300000000000D+00  0.0000000000000D+00  0.0000000000000D+00
   295  2.9400000000000D+00  0.0000000000000D+00  0.0000000000000D+00
   296  2.9500000000000D+00  0.0000000000000D+00  0.0000000000000D+00
   297  2.9600000000000D+00  0.0000000000000D+00  0.0000000000000D+00
   298  2.9700000000000D+00  0.0000000000000D+00  0.0000000000000D+00
   299  2.9800000000000D+00  0.0000000000000D+00  0.0000000000000D+00
   300  2.9900000000000D+00  0.0000000000000D+00  0.0000000000000D+00
   301  3.0000000000000D+00  0.0000000000000D+00  0.0000000000000D+00
   302  3.0100000000000D+00  0.0000000000000D+00  0.0000000000000D+00
   303  3.0200000000000D+00  0.0000000000000D+00  0.0000000000000D+00
   304  3.0300000000000D+00  0.0000000000000D+00  0.0000000000000D+00
   305  3.0400000000000D+00  0.0000000000000D+00  0.0000000000000D+00
   306  3.0500000000000D+00  0.0000000000000D+00  0.0000000000000D+00
   307  3.0600000000000D+00  0.0000000000000D+00  0.0000000000000D+00
   308  3.0700000000000D+00  0.0000000000000D+00  0.0000000000000D+00
   309  3.0800000000000D+00  0.0000000000000D+00  0.0000000000000D+00
   310  3.0900000000000D+00  0.0000000000000D+00  0.0000000000000D+00
   311  3.1000000000000D+00  0.0000000000000D+00  0.0000000000000D+00
   312  3.1100000000000D+00  0.0000000000000D+00  0.0000000000000D+00
   313  3.1200000000000D+00  0.0000000000000D+00  0.0000000000000D+00
   314  3.1300000000000D+00  0.0000000000000D+00  0.0000000000000D+00
   315  3.1400000000000D+00  0.0000000000000D+00  0.0000000000000D+00
   316  3.1500000000000D+00  0.0000000000000D+00  0.0000000000000D+00
   317  3.1600000000000D+00  0.0000000000000D+00  0.0000000000000D+00
   318  3.1700000000000D+00  0.0000000000000D+00  0.0000000000000D+00
   319  3.1800000000000D+00  0.0000000000000D+00  0.0000000000000D+00
   320  3.1900000000000D+00  0.0000000000000D+00  0.0000000000000D+00
   321  3.2000000000000D+00  0.0000000000000D+00  0.0000000000000D+00
   322  3.2100000000000D+00  0.0000000000000D+00  0.0000000000000D+00
   323  3.2200000000000D+00  0.0000000000000D+00  0.0000000000000D+00
   324  3.2300000000000D+00  0.0000000000000D+00  0.0000000000000D+00
   325  3.2400000000000D+00  0.0000000000000D+00  0.0000000000000D+00
   326  3.2500000000000D+00  0.0000000000000D+00  0.0000000000000D+00
   327  3.2600000000000D+00  0.0000000000000D+00  0.0000000000000D+00
   328  3.2700000000000D+00  0.0000000000000D+00  0.0000000000000D+00
   329  3.2800000000000D+00  0.0000000000000D+00  0.0000000000000D+00
   330  3.2900000000000D+00  0.0000000000000D+00  0.0000000000000D+00
   331  3.3000000000000D+00  0.0000000000000D+00  0.0000000000000D+00
   332  3.3100000000000D+00  0.0000000000000D+00  0.0000000000000D+00
   333  3.3200000000000D+00  0.0000000000000D+00  0.0000000000000D+00
   334  3.3300000000000D+00  0.0000000000000D+00  0.0000000000000D+00
   335  3.3400000000000D+00  0.0000000000000D+00  0.0000000000000D+00
   336  3.3500000000000D+00  0.0000000000000D+00  0.0000000000000D+00
   337  3.3600000000000D+00  0.0000000000000D+00  0.0000000000000D+00
   338  3.3700000000000D+00  0.0000000000000D+00  0.0000000000000D+00
   339  3.3800000000000D+00  0.0000000000000D+00  0.0000000000000D+00
   340  3.3900000000000D+00  0.0000000000000D+00  0.0000000000000D+00
   341  3.4000000000000D+00  0.0000000000000D+00  0.0000000000000D+00
   342  3.4100000000000D+00  0.0000000000000D+00  0.0000000000000D+00
   343  3.4200000000000D+00  0.0000000000000D+00  0.0000000000000D+00
   344  3.4300000000000D+00  0.0000000000000D+00  0.0000000000000D+00
   345  3.4400000000000D+00  0.0000000000000D+00  0.0000000000000D+00
   346  3.4500000000000D+00  0.0000000000000D+00  0.0000000000000D+00
   347  3.4600000000000D+00  0.0000000000000D+00  0.0000000000000D+00
   348  3.4700000000000D+00  0.0000000000000D+00  0.0000000000000D+00
   349  3.4800000000000D+00  0.0000000000000D+00  0.0000000000000D+00
   350  3.4900000000000D+00  0.0000000000000D+00  0.0000000000000D+00
   351  3.5000000000000D+00  0.0000000000000D+00  0.0000000000000D+00
   352  3.5100000000000D+00  0.0000000000000D+00  0.0000000000000D+00
   353  3.5200000000000D+00  0.0000000000000D+00  0.0000000000000D+00
   354  3.5300000000000D+00  0.0000000000000D+00  0.0000000000000D+00
   355  3.5400000000000D+00  0.0000000000000D+00  0.0000000000000D+00
   356  3.5500000000000D+00  0.0000000000000D+00  0.0000000000000D+00
   357  3.5600000000000D+00  0.0000000000000D+00  0.0000000000000D+00
   358  3.5700000000000D+00  0.0000000000000D+00  0.0000000000000D+00
   359  3.5800000000000D+00  0.0000000000000D+00  0.0000000000000D+00
   360  3.5900000000000D+00  0.0000000000000D+00  0.0000000000000D+00
   361  3.6000000000000D+00  0.0000000000000D+00  0.0000000000000D+00
   362  3.6100000000000D+00  0.0000000000000D+00  0.0000000000000D+00
   363  3.6200000000000D+00  0.0000000000000D+00  0.0000000000000D+00
   364  3.6300000000000D+00  0.0000000000000D+00  0.0000000000000D+00
   365  3.6400000000000D+00  0.0000000000000D+00  0.0000000000000D+00
   366  3.6500000000000D+00  0.0000000000000D+00  0.0000000000000D+00
   367  3.6600000000000D+00  0.0000000000000D+00  0.0000000000000D+00
   368  3.6700000000000D+00  0.0000000000000D+00  0.0000000000000D+00
   369  3.6800000000000D+00  0.0000000000000D+00  0.0000000000000D+00
   370  3.6900000000000D+00  0.0000000000000D+00  0.0000000000000D+00
   371  3.7000000000000D+00  0.0000000000000D+00  0.0000000000000D+00
   372  3.7100000000000D+00  0.0000000000000D+00  0.0000000000000D+00
   373  3.7200000000000D+00  0.0000000000000D+00  0.0000000000000D+00
   374  3.7300000000000D+00  0.0000000000000D+00  0.0000000000000D+00
   375  3.7400000000000D+00  0.0000000000000D+00  0.0000000000000D+00
   376  3.7500000000000D+00  0.0000000000000D+00  0.0000000000000D+00
   377  3.7600000000000D+00  0.0000000000000D+00  0.0000000000000D+00
   378  3.7700000000000D+00  0.0000000000000D+00  0.0000000000000D+00
   379  3.7800000000000D+00  0.0000000000000D+00  0.0000000000000D+00
   380  3.7900000000000D+00  0.0000000000000D+00  0.0000000000000D+00
   381  3.8000000000000D+00  0.0000000000000D+00  0.0000000000000D+00
   382  3.8100000000000D+00  0.0000000000000D+00  0.0000000000000D+00
   383  3.8200000000000D+00  0.0000000000000D+00  0.0000000000000D+00
   384  3.8300000000000D+00  0.0000000000000D+00  0.0000000000000D+00
   385  3.8400000000000D+00  0.0000000000000D+00  0.0000000000000D+00
   386  3.8500000000000D+00  0.0000000000000D+00  0.0000000000000D+00
   387  3.8600000000000D+00  0.0000000000000D+00  0.0000000000000D+00
   388  3.8700000000000D+00  0.0000000000000D+00  0.0000000000000D+00
   389  3.8800000000000D+00  0.0000000000000D+00  0.0000000000000D+00
   390  3.8900000000000D+00  0.0000000000000D+00  0.0000000000000D+00
   391  3.9000000000000D+00  0.0000000000000D+00  0.0000000000000D+00
   392  3.9100000000000D+00  0.0000000000000D+00  0.0000000000000D+00
   393  3.9200000000000D+00  0.0000000000000D+00  0.0000000000000D+00
   394  3.9300000000000D+00  0.0000000000000D+00  0.0000000000000D+00
   395  3.9400000000000D+00  0.0000000000000D+00  0.0000000000000D+00
   396  3.9500000000000D+00  0.0000000000000D+00  0.0000000000000D+00
   397  3.9600000000000D+00  0.0000000000000D+00  0.0000000000000D+00
   398  3.9700000000000D+00  0.0000000000000D+00  0.0000000000000D+00
   399  3.9800000000000D+00  0.0000000000000D+00  0.0000000000000D+00
   400  3.9900000000000D+00  0.0000000000000D+00  0.0000000000000D+00
   401  4.0000000000000D+00  0.0000000000000D+00  0.0000000000000D+00
   402  4.0100000000000D+00  0.0000000000000D+00  0.0000000000000D+00
   403  4.0200000000000D+00  0.0000000000000D+00  0.0000000000000D+00
   404  4.0300000000000D+00  0.0000000000000D+00  0.0000000000000D+00
   405  4.0400000000000D+00  0.0000000000000D+00  0.0000000000000D+00
   406  4.0500000000000D+00  0.0000000000000D+00  0.0000000000000D+00
   407  4.0600000000000D+00  0.0000000000000D+00  0.0000000000000D+00
   408  4.0700000000000D+00  0.0000000000000D+00  0.0000000000000D+00
   409  4.0800000000000D+00  0.0000000000000D+00  0.0000000000000D+00
   410  4.0900000000000D+00  0.0000000000000D+00  0.0000000000000D+00
   411  4.1000000000000D+00  0.0000000000000D+00  0.0000000000000D+00
   412  4.1100000000000D+00  0.0000000000000D+00  0.0000000000000D+00
   413  4.1200000000000D+00  0.0000000000000D+00  0.0000000000000D+00
   414  4.1300000000000D+00  0.0000000000000D+00  0.0000000000000D+00
   415  4.1400000000000D+00  0.0000000000000D+00  0.0000000000000D+00
   416  4.1500000000000D+00  0.0000000000000D+00  0.0000000000000D+00
   417  4.1600000000000D+00  0.0000000000000D+00  0.0000000000000D+00
   418  4.1700000000000D+00  0.0000000000000D+00  0.0000000000000D+00
   419  4.1800000000000D+00  0.0000000000000D+00  0.0000000000000D+00
   420  4.1900000000000D+00  0.0000000000000D+00  0.0000000000000D+00
   421  4.2000000000000D+00  0.0000000000000D+00  0.0000000000000D+00
   422  4.2100000000000D+00  0.0000000000000D+00  0.0000000000000D+00