Ne    ONCVPSP-3.3.0  r_core=   1.31204   1.51396
     10.0000      8.0000      220117    zatom,zion,pspd
     8      11   1     4   400     0    pspcod,pspxc,lmax,lloc,mmax,r2well
  3.99000000  0.00000000  0.00000000    rchrg fchrg qchrg
     2     2     0     0     0    nproj
     1     1           extension_switch
   0                         2.6916632129411D+00 -4.9313500894076D-01
     1  0.0000000000000D+00  4.5802150960839D-10  2.3958304784522D-10
     2  1.0000000000000D-02  9.8829218958685D-02  1.4620676060562D-02
     3  2.0000000000000D-02  1.9733905209968D-01  2.9311007551475D-02
     4  3.0000000000000D-02  2.9521085730301D-01  4.4140017257599D-02
     5  4.0000000000000D-02  3.9212748431786D-01  5.9175468566108D-02
     6  5.0000000000000D-02  4.8777403176233D-01  7.4483250439311D-02
     7  6.0000000000000D-02  5.8183861707074D-01  9.0126779821718D-02
     8  7.0000000000000D-02  6.7401316315739D-01  1.0616642700859D-01
     9  8.0000000000000D-02  7.6399420510836D-01  1.2265896926355D-01
    10  9.0000000000000D-02  8.5148371965243D-01  1.3965707767845D-01
    11  1.0000000000000D-01  9.3618997950914D-01  1.5720884192210D-01
    12  1.1000000000000D-01  1.0178284339748D+00  1.7535733713093D-01
    13  1.2000000000000D-01  1.0961226162967D+00  1.9414023675604D-01
    14  1.3000000000000D-01  1.1708050775160D+00  2.1358947470554D-01
    15  1.4000000000000D-01  1.2416183455393D+00  2.3373095960988D-01
    16  1.5000000000000D-01  1.3083159072499D+00  2.5458434350078D-01
    17  1.6000000000000D-01  1.3706632104954D+00  2.7616284663319D-01
    18  1.7000000000000D-01  1.4284386818157D+00  2.9847313960423D-01
    19  1.8000000000000D-01  1.4814347548123D+00  3.2151528333671D-01
    20  1.9000000000000D-01  1.5294589031210D+00  3.4528272690585D-01
    21  2.0000000000000D-01  1.5723346710594D+00  3.6976236260197D-01
    22  2.1000000000000D-01  1.6099026941816D+00  3.9493463704508D-01
    23  2.2000000000000D-01  1.6420217012092D+00  4.2077371660744D-01
    24  2.3000000000000D-01  1.6685694881283D+00  4.4724770486074D-01
    25  2.4000000000000D-01  1.6894438546614D+00  4.7431890925448D-01
    26  2.5000000000000D-01  1.7045634928537D+00  5.0194415375430D-01
    27  2.6000000000000D-01  1.7138688171639D+00  5.3007513373019D-01
    28  2.7000000000000D-01  1.7173227252294D+00  5.5865880898880D-01
    29  2.8000000000000D-01  1.7149112783964D+00  5.8763783049609D-01
    30  2.9000000000000D-01  1.7066442911642D+00  6.1695099603917D-01
    31  3.0000000000000D-01  1.6925558189070D+00  6.4653372983389D-01
    32  3.1000000000000D-01  1.6727045335901D+00  6.7631858089860D-01
    33  3.2000000000000D-01  1.6471739777153D+00  7.0623573488737D-01
    34  3.3000000000000D-01  1.6160726873820D+00  7.3621353400877D-01
    35  3.4000000000000D-01  1.5795341761602D+00  7.6617899964932D-01
    36  3.5000000000000D-01  1.5377167724148D+00  7.9605835237407D-01
    37  3.6000000000000D-01  1.4908033037981D+00  8.2577752408969D-01
    38  3.7000000000000D-01  1.4390006238287D+00  8.5526265732598D-01
    39  3.8000000000000D-01  1.3825389767911D+00  8.8444058681800D-01
    40  3.9000000000000D-01  1.3216711986023D+00  9.1323929885059D-01
    41  4.0000000000000D-01  1.2566717527934D+00  9.4158836415524D-01
    42  4.1000000000000D-01  1.1878356023274D+00  9.6941934052382D-01
    43  4.2000000000000D-01  1.1154769195969D+00  9.9666614171874D-01
    44  4.3000000000000D-01  1.0399276386079D+00  1.0232653697099D+00
    45  4.4000000000000D-01  9.6153585503848D-01  1.0491566077508D+00
    46  4.5000000000000D-01  8.8066408153213D-01  1.0742826723125D+00
    47  4.6000000000000D-01  7.9768736724933D-01  1.0985898224194D+00
    48  4.7000000000000D-01  7.1299129231096D-01  1.1220279254689D+00
    49  4.8000000000000D-01  6.2696984932419D-01  1.1445505791595D+00
    50  4.9000000000000D-01  5.4002322565526D-01  1.1661151896990D+00
    51  5.0000000000000D-01  4.5255550148772D-01  1.1866830069962D+00
    52  5.1000000000000D-01  3.6497227996251D-01  1.2062191180682D+00
    53  5.2000000000000D-01  2.7767826681864D-01  1.2246924003959D+00
    54  5.3000000000000D-01  1.9107481792407D-01  1.2420754374407D+00
    55  5.4000000000000D-01  1.0555747389309D-01  1.2583443989833D+00
    56  5.5000000000000D-01  2.1513501613986D-02  1.2734788893553D+00
    57  5.6000000000000D-01 -6.0680537051917D-02  1.2874617670049D+00
    58  5.7000000000000D-01 -1.4066116889920D-01  1.3002789391622D+00
    59  5.8000000000000D-01 -2.1808032480169D-01  1.3119191356430D+00
    60  5.9000000000000D-01 -2.9260756657599D-01  1.3223736660516D+00
    61  6.0000000000000D-01 -3.6393220531981D-01  1.3316361648076D+00
    62  6.1000000000000D-01 -4.3176529186978D-01  1.3397023285327D+00
    63  6.2000000000000D-01 -4.9584146083459D-01  1.3465696503771D+00
    64  6.3000000000000D-01 -5.5592061068921D-01  1.3522371558604D+00
    65  6.4000000000000D-01 -6.1178940363630D-01  1.3567051447270D+00
    66  6.5000000000000D-01 -6.6326257035423D-01  1.3599749431897D+00
    67  6.6000000000000D-01 -7.1018400634907D-01  1.3620486707503D+00
    68  6.7000000000000D-01 -7.5242764838020D-01  1.3629290255425D+00
    69  6.8000000000000D-01 -7.8989812133562D-01  1.3626190918536D+00
    70  6.9000000000000D-01 -8.2253114797342D-01  1.3611221731397D+00
    71  7.0000000000000D-01 -8.5029371609052D-01  1.3584416534626D+00
    72  7.1000000000000D-01 -8.7318399991391D-01  1.3545808898571D+00
    73  7.2000000000000D-01 -8.9123103481539D-01  1.3495431376752D+00
    74  7.3000000000000D-01 -9.0449414679786D-01  1.3433315104694D+00
    75  7.4000000000000D-01 -9.1306214056203D-01  1.3359489754692D+00
    76  7.5000000000000D-01 -9.1705225232063D-01  1.3273983851775D+00
    77  7.6000000000000D-01 -9.1660887585536D-01  1.3176825450810D+00
    78  7.7000000000000D-01 -9.1190207256778D-01  1.3068043169332D+00
    79  7.8000000000000D-01 -9.0312587847213D-01  1.2947667565318D+00
    80  7.9000000000000D-01 -8.9049642314341D-01  1.2815732843926D+00
    81  8.0000000000000D-01 -8.7424987758108D-01  1.2672278872163D+00
    82  8.1000000000000D-01 -8.5464024973694D-01  1.2517353475647D+00
    83  8.2000000000000D-01 -8.3193704806948D-01  1.2351014987106D+00
    84  8.3000000000000D-01 -8.0642283490500D-01  1.2173335012114D+00
    85  8.4000000000000D-01 -7.7839069259109D-01  1.1984401373847D+00
    86  8.5000000000000D-01 -7.4814162640538D-01  1.1784321195359D+00
    87  8.6000000000000D-01 -7.1598192891794D-01  1.1573224075137D+00
    88  8.7000000000000D-01 -6.8222053098963D-01  1.1351265309472D+00
    89  8.8000000000000D-01 -6.4716636481222D-01  1.1118629113583D+00
    90  8.9000000000000D-01 -6.1112576435501D-01  1.0875531792385D+00
    91  9.0000000000000D-01 -5.7439992827380D-01  1.0622224811417D+00
    92  9.1000000000000D-01 -5.3728246976310D-01  1.0358997718688D+00
    93  9.2000000000000D-01 -5.0005707699411D-01  1.0086180869058D+00
    94  9.3000000000000D-01 -4.6299530668668D-01  9.8041479042953D-01
    95  9.4000000000000D-01 -4.2635453202211D-01  9.5133179440879D-01
    96  9.5000000000000D-01 -3.9037606453132D-01  9.2141574459891D-01
    97  9.6000000000000D-01 -3.5528346778292D-01  8.9071816956157D-01
    98  9.7000000000000D-01 -3.2128107872512D-01  8.5929558922020D-01
    99  9.8000000000000D-01 -2.8855275034305D-01  8.2720957989586D-01
   100  9.9000000000000D-01 -2.5726082694572D-01  7.9452679324836D-01
   101  1.0000000000000D+00 -2.2754536094326D-01  7.6131892705920D-01
   102  1.0100000000000D+00 -1.9952357738406D-01  7.2766264634451D-01
   103  1.0200000000000D+00 -1.7328958986992D-01  6.9363945385940D-01
   104  1.0300000000000D+00 -1.4891436869800D-01  6.5933550966285D-01
   105  1.0400000000000D+00 -1.2644595944542D-01  6.2484139999780D-01
   106  1.0500000000000D+00 -1.0590994739121D-01  5.9025185637416D-01
   107  1.0600000000000D+00 -8.7310160471949D-02  5.5566542635637D-01
   108  1.0700000000000D+00 -7.0629600890186D-02  5.2118409814812D-01
   109  1.0800000000000D+00 -5.5831592876490D-02  4.8691288167302D-01
   110  1.0900000000000D+00 -4.2861131785407D-02  4.5295934939217D-01
   111  1.1000000000000D+00 -3.1646417422862D-02  4.1943314063644D-01
   112  1.1100000000000D+00 -2.2100552298161D-02  3.8644543375583D-01
   113  1.1200000000000D+00 -1.4123383748990D-02  3.5410839080670D-01
   114  1.1300000000000D+00 -7.6034670927672D-03  3.2253457993300D-01
   115  1.1400000000000D+00 -2.4201257652513D-03  2.9183638088830D-01
   116  1.1500000000000D+00  1.5544171288365D-03  2.6212537952736D-01
   117  1.1600000000000D+00  4.4528620410661D-03  2.3351175725369D-01
   118  1.1700000000000D+00  6.4106378397359D-03  2.0610368158703D-01
   119  1.1800000000000D+00  7.5637155682047D-03  1.8000670412249D-01
   120  1.1900000000000D+00  8.0464584006973D-03  1.5532317218510D-01
   121  1.2000000000000D+00  7.9895346438062D-03  1.3215166038964D-01
   122  1.2100000000000D+00  7.5179203164972D-03  1.1058642825403D-01
   123  1.2200000000000D+00  6.7490169820945D-03  9.0716909829320D-02
   124  1.2300000000000D+00  5.7909090950736D-03  7.2627240987215D-02
   125  1.2400000000000D+00  4.7407838455634D-03  5.6395829711769D-02
   126  1.2500000000000D+00  3.6835354747966D-03  4.2094974512551D-02
   127  1.2600000000000D+00  2.6905729949887D-03  2.9790535366685D-02
   128  1.2700000000000D+00  1.8193260461154D-03  1.9545824381483D-02
   129  1.2800000000000D+00  1.1103083145166D-03  1.1402195898775D-02
   130  1.2900000000000D+00  5.8509544315181D-04  5.3756971204213D-03
   131  1.3000000000000D+00  2.8213047868372D-04  1.6784017036910D-03
   132  1.3100000000000D+00  1.5654008972237D-04  1.1966346249527D-04
   133  1.3200000000000D+00  5.9928114066209D-05 -1.3074293777565D-04
   134  1.3300000000000D+00 -6.7024533454314D-06  2.2206410727979D-05
   135  1.3400000000000D+00 -6.2989592660641D-06  2.5766856698862D-05
   136  1.3500000000000D+00  2.6556936982732D-06 -7.5666027877252D-06
   137  1.3600000000000D+00 -1.4508277175328D-08  6.7263564988609D-10
   138  1.3700000000000D+00 -3.5526691175058D-07  1.6470955660728D-08
   139  1.3800000000000D+00  0.0000000000000D+00  0.0000000000000D+00
   140  1.3900000000000D+00  0.0000000000000D+00  0.0000000000000D+00
   141  1.4000000000000D+00  0.0000000000000D+00  0.0000000000000D+00
   142  1.4100000000000D+00  0.0000000000000D+00  0.0000000000000D+00
   143  1.4200000000000D+00  0.0000000000000D+00  0.0000000000000D+00
   144  1.4300000000000D+00  0.0000000000000D+00  0.0000000000000D+00
   145  1.4400000000000D+00  0.0000000000000D+00  0.0000000000000D+00
   146  1.4500000000000D+00  0.0000000000000D+00  0.0000000000000D+00
   147  1.4600000000000D+00  0.0000000000000D+00  0.0000000000000D+00
   148  1.4700000000000D+00  0.0000000000000D+00  0.0000000000000D+00
   149  1.4800000000000D+00  0.0000000000000D+00  0.0000000000000D+00
   150  1.4900000000000D+00  0.0000000000000D+00  0.0000000000000D+00
   151  1.5000000000000D+00  0.0000000000000D+00  0.0000000000000D+00
   152  1.5100000000000D+00  0.0000000000000D+00  0.0000000000000D+00
   153  1.5200000000000D+00  0.0000000000000D+00  0.0000000000000D+00
   154  1.5300000000000D+00  0.0000000000000D+00  0.0000000000000D+00
   155  1.5400000000000D+00  0.0000000000000D+00  0.0000000000000D+00
   156  1.5500000000000D+00  0.0000000000000D+00  0.0000000000000D+00
   157  1.5600000000000D+00  0.0000000000000D+00  0.0000000000000D+00
   158  1.5700000000000D+00  0.0000000000000D+00  0.0000000000000D+00
   159  1.5800000000000D+00  0.0000000000000D+00  0.0000000000000D+00
   160  1.5900000000000D+00  0.0000000000000D+00  0.0000000000000D+00
   161  1.6000000000000D+00  0.0000000000000D+00  0.0000000000000D+00
   162  1.6100000000000D+00  0.0000000000000D+00  0.0000000000000D+00
   163  1.6200000000000D+00  0.0000000000000D+00  0.0000000000000D+00
   164  1.6300000000000D+00  0.0000000000000D+00  0.0000000000000D+00
   165  1.6400000000000D+00  0.0000000000000D+00  0.0000000000000D+00
   166  1.6500000000000D+00  0.0000000000000D+00  0.0000000000000D+00
   167  1.6600000000000D+00  0.0000000000000D+00  0.0000000000000D+00
   168  1.6700000000000D+00  0.0000000000000D+00  0.0000000000000D+00
   169  1.6800000000000D+00  0.0000000000000D+00  0.0000000000000D+00
   170  1.6900000000000D+00  0.0000000000000D+00  0.0000000000000D+00
   171  1.7000000000000D+00  0.0000000000000D+00  0.0000000000000D+00
   172  1.7100000000000D+00  0.0000000000000D+00  0.0000000000000D+00
   173  1.7200000000000D+00  0.0000000000000D+00  0.0000000000000D+00
   174  1.7300000000000D+00  0.0000000000000D+00  0.0000000000000D+00
   175  1.7400000000000D+00  0.0000000000000D+00  0.0000000000000D+00
   176  1.7500000000000D+00  0.0000000000000D+00  0.0000000000000D+00
   177  1.7600000000000D+00  0.0000000000000D+00  0.0000000000000D+00
   178  1.7700000000000D+00  0.0000000000000D+00  0.0000000000000D+00
   179  1.7800000000000D+00  0.0000000000000D+00  0.0000000000000D+00
   180  1.7900000000000D+00  0.0000000000000D+00  0.0000000000000D+00
   181  1.8000000000000D+00  0.0000000000000D+00  0.0000000000000D+00
   182  1.8100000000000D+00  0.0000000000000D+00  0.0000000000000D+00
   183  1.8200000000000D+00  0.0000000000000D+00  0.0000000000000D+00
   184  1.8300000000000D+00  0.0000000000000D+00  0.0000000000000D+00
   185  1.8400000000000D+00  0.0000000000000D+00  0.0000000000000D+00
   186  1.8500000000000D+00  0.0000000000000D+00  0.0000000000000D+00
   187  1.8600000000000D+00  0.0000000000000D+00  0.0000000000000D+00
   188  1.8700000000000D+00  0.0000000000000D+00  0.0000000000000D+00
   189  1.8800000000000D+00  0.0000000000000D+00  0.0000000000000D+00
   190  1.8900000000000D+00  0.0000000000000D+00  0.0000000000000D+00
   191  1.9000000000000D+00  0.0000000000000D+00  0.0000000000000D+00
   192  1.9100000000000D+00  0.0000000000000D+00  0.0000000000000D+00
   193  1.9200000000000D+00  0.0000000000000D+00  0.0000000000000D+00
   194  1.9300000000000D+00  0.0000000000000D+00  0.0000000000000D+00
   195  1.9400000000000D+00  0.0000000000000D+00  0.0000000000000D+00
   196  1.9500000000000D+00  0.0000000000000D+00  0.0000000000000D+00
   197  1.9600000000000D+00  0.0000000000000D+00  0.0000000000000D+00
   198  1.9700000000000D+00  0.0000000000000D+00  0.0000000000000D+00
   199  1.9800000000000D+00  0.0000000000000D+00  0.0000000000000D+00
   200  1.9900000000000D+00  0.0000000000000D+00  0.0000000000000D+00
   201  2.0000000000000D+00  0.0000000000000D+00  0.0000000000000D+00
   202  2.0100000000000D+00  0.0000000000000D+00  0.0000000000000D+00
   203  2.0200000000000D+00  0.0000000000000D+00  0.0000000000000D+00
   204  2.0300000000000D+00  0.0000000000000D+00  0.0000000000000D+00
   205  2.0400000000000D+00  0.0000000000000D+00  0.0000000000000D+00
   206  2.0500000000000D+00  0.0000000000000D+00  0.0000000000000D+00
   207  2.0600000000000D+00  0.0000000000000D+00  0.0000000000000D+00
   208  2.0700000000000D+00  0.0000000000000D+00  0.0000000000000D+00
   209  2.0800000000000D+00  0.0000000000000D+00  0.0000000000000D+00
   210  2.0900000000000D+00  0.0000000000000D+00  0.0000000000000D+00
   211  2.1000000000000D+00  0.0000000000000D+00  0.0000000000000D+00
   212  2.1100000000000D+00  0.0000000000000D+00  0.0000000000000D+00
   213  2.1200000000000D+00  0.0000000000000D+00  0.0000000000000D+00
   214  2.1300000000000D+00  0.0000000000000D+00  0.0000000000000D+00
   215  2.1400000000000D+00  0.0000000000000D+00  0.0000000000000D+00
   216  2.1500000000000D+00  0.0000000000000D+00  0.0000000000000D+00
   217  2.1600000000000D+00  0.0000000000000D+00  0.0000000000000D+00
   218  2.1700000000000D+00  0.0000000000000D+00  0.0000000000000D+00
   219  2.1800000000000D+00  0.0000000000000D+00  0.0000000000000D+00
   220  2.1900000000000D+00  0.0000000000000D+00  0.0000000000000D+00
   221  2.2000000000000D+00  0.0000000000000D+00  0.0000000000000D+00
   222  2.2100000000000D+00  0.0000000000000D+00  0.0000000000000D+00
   223  2.2200000000000D+00  0.0000000000000D+00  0.0000000000000D+00
   224  2.2300000000000D+00  0.0000000000000D+00  0.0000000000000D+00
   225  2.2400000000000D+00  0.0000000000000D+00  0.0000000000000D+00
   226  2.2500000000000D+00  0.0000000000000D+00  0.0000000000000D+00
   227  2.2600000000000D+00  0.0000000000000D+00  0.0000000000000D+00
   228  2.2700000000000D+00  0.0000000000000D+00  0.0000000000000D+00
   229  2.2800000000000D+00  0.0000000000000D+00  0.0000000000000D+00
   230  2.2900000000000D+00  0.0000000000000D+00  0.0000000000000D+00
   231  2.3000000000000D+00  0.0000000000000D+00  0.0000000000000D+00
   232  2.3100000000000D+00  0.0000000000000D+00  0.0000000000000D+00
   233  2.3200000000000D+00  0.0000000000000D+00  0.0000000000000D+00
   234  2.3300000000000D+00  0.0000000000000D+00  0.0000000000000D+00
   235  2.3400000000000D+00  0.0000000000000D+00  0.0000000000000D+00
   236  2.3500000000000D+00  0.0000000000000D+00  0.0000000000000D+00
   237  2.3600000000000D+00  0.0000000000000D+00  0.0000000000000D+00
   238  2.3700000000000D+00  0.0000000000000D+00  0.0000000000000D+00
   239  2.3800000000000D+00  0.0000000000000D+00  0.0000000000000D+00
   240  2.3900000000000D+00  0.0000000000000D+00  0.0000000000000D+00
   241  2.4000000000000D+00  0.0000000000000D+00  0.0000000000000D+00
   242  2.4100000000000D+00  0.0000000000000D+00  0.0000000000000D+00
   243  2.4200000000000D+00  0.0000000000000D+00  0.0000000000000D+00
   244  2.4300000000000D+00  0.0000000000000D+00  0.0000000000000D+00
   245  2.4400000000000D+00  0.0000000000000D+00  0.0000000000000D+00
   246  2.4500000000000D+00  0.0000000000000D+00  0.0000000000000D+00
   247  2.4600000000000D+00  0.0000000000000D+00  0.0000000000000D+00
   248  2.4700000000000D+00  0.0000000000000D+00  0.0000000000000D+00
   249  2.4800000000000D+00  0.0000000000000D+00  0.0000000000000D+00
   250  2.4900000000000D+00  0.0000000000000D+00  0.0000000000000D+00
   251  2.5000000000000D+00  0.0000000000000D+00  0.0000000000000D+00
   252  2.5100000000000D+00  0.0000000000000D+00  0.0000000000000D+00
   253  2.5200000000000D+00  0.0000000000000D+00  0.0000000000000D+00
   254  2.5300000000000D+00  0.0000000000000D+00  0.0000000000000D+00
   255  2.5400000000000D+00  0.0000000000000D+00  0.0000000000000D+00
   256  2.5500000000000D+00  0.0000000000000D+00  0.0000000000000D+00
   257  2.5600000000000D+00  0.0000000000000D+00  0.0000000000000D+00
   258  2.5700000000000D+00  0.0000000000000D+00  0.0000000000000D+00
   259  2.5800000000000D+00  0.0000000000000D+00  0.0000000000000D+00
   260  2.5900000000000D+00  0.0000000000000D+00  0.0000000000000D+00
   261  2.6000000000000D+00  0.0000000000000D+00  0.0000000000000D+00
   262  2.6100000000000D+00  0.0000000000000D+00  0.0000000000000D+00
   263  2.6200000000000D+00  0.0000000000000D+00  0.0000000000000D+00
   264  2.6300000000000D+00  0.0000000000000D+00  0.0000000000000D+00
   265  2.6400000000000D+00  0.0000000000000D+00  0.0000000000000D+00
   266  2.6500000000000D+00  0.0000000000000D+00  0.0000000000000D+00
   267  2.6600000000000D+00  0.0000000000000D+00  0.0000000000000D+00
   268  2.6700000000000D+00  0.0000000000000D+00  0.0000000000000D+00
   269  2.6800000000000D+00  0.0000000000000D+00  0.0000000000000D+00
   270  2.6900000000000D+00  0.0000000000000D+00  0.0000000000000D+00
   271  2.7000000000000D+00  0.0000000000000D+00  0.0000000000000D+00
   272  2.7100000000000D+00  0.0000000000000D+00  0.0000000000000D+00
   273  2.7200000000000D+00  0.0000000000000D+00  0.0000000000000D+00
   274  2.7300000000000D+00  0.0000000000000D+00  0.0000000000000D+00
   275  2.7400000000000D+00  0.0000000000000D+00  0.0000000000000D+00
   276  2.7500000000000D+00  0.0000000000000D+00  0.0000000000000D+00
   277  2.7600000000000D+00  0.0000000000000D+00  0.0000000000000D+00
   278  2.7700000000000D+00  0.0000000000000D+00  0.0000000000000D+00
   279  2.7800000000000D+00  0.0000000000000D+00  0.0000000000000D+00
   280  2.7900000000000D+00  0.0000000000000D+00  0.0000000000000D+00
   281  2.8000000000000D+00  0.0000000000000D+00  0.0000000000000D+00
   282  2.8100000000000D+00  0.0000000000000D+00  0.0000000000000D+00
   283  2.8200000000000D+00  0.0000000000000D+00  0.0000000000000D+00
   284  2.8300000000000D+00  0.0000000000000D+00  0.0000000000000D+00
   285  2.8400000000000D+00  0.0000000000000D+00  0.0000000000000D+00
   286  2.8500000000000D+00  0.0000000000000D+00  0.0000000000000D+00
   287  2.8600000000000D+00  0.0000000000000D+00  0.0000000000000D+00
   288  2.8700000000000D+00  0.0000000000000D+00  0.0000000000000D+00
   289  2.8800000000000D+00  0.0000000000000D+00  0.0000000000000D+00
   290  2.8900000000000D+00  0.0000000000000D+00  0.0000000000000D+00
   291  2.9000000000000D+00  0.0000000000000D+00  0.0000000000000D+00
   292  2.9100000000000D+00  0.0000000000000D+00  0.0000000000000D+00
   293  2.9200000000000D+00  0.0000000000000D+00  0.0000000000000D+00
   294  2.9300000000000D+00  0.0000000000000D+00  0.0000000000000D+00
   295  2.9400000000000D+00  0.0000000000000D+00  0.0000000000000D+00
   296  2.9500000000000D+00  0.0000000000000D+00  0.0000000000000D+00
   297  2.9600000000000D+00  0.0000000000000D+00  0.0000000000000D+00
   298  2.9700000000000D+00  0.0000000000000D+00  0.0000000000000D+00
   299  2.9800000000000D+00  0.0000000000000D+00  0.0000000000000D+00
   300  2.9900000000000D+00  0.0000000000000D+00  0.0000000000000D+00
   301  3.0000000000000D+00  0.0000000000000D+00  0.0000000000000D+00
   302  3.0100000000000D+00  0.0000000000000D+00  0.0000000000000D+00
   303  3.0200000000000D+00  0.0000000000000D+00  0.0000000000000D+00
   304  3.0300000000000D+00  0.0000000000000D+00  0.0000000000000D+00
   305  3.0400000000000D+00  0.0000000000000D+00  0.0000000000000D+00
   306  3.0500000000000D+00  0.0000000000000D+00  0.0000000000000D+00
   307  3.0600000000000D+00  0.0000000000000D+00  0.0000000000000D+00
   308  3.0700000000000D+00  0.0000000000000D+00  0.0000000000000D+00
   309  3.0800000000000D+00  0.0000000000000D+00  0.0000000000000D+00
   310  3.0900000000000D+00  0.0000000000000D+00  0.0000000000000D+00
   311  3.1000000000000D+00  0.0000000000000D+00  0.0000000000000D+00
   312  3.1100000000000D+00  0.0000000000000D+00  0.0000000000000D+00
   313  3.1200000000000D+00  0.0000000000000D+00  0.0000000000000D+00
   314  3.1300000000000D+00  0.0000000000000D+00  0.0000000000000D+00
   315  3.1400000000000D+00  0.0000000000000D+00  0.0000000000000D+00
   316  3.1500000000000D+00  0.0000000000000D+00  0.0000000000000D+00
   317  3.1600000000000D+00  0.0000000000000D+00  0.0000000000000D+00
   318  3.1700000000000D+00  0.0000000000000D+00  0.0000000000000D+00
   319  3.1800000000000D+00  0.0000000000000D+00  0.0000000000000D+00
   320  3.1900000000000D+00  0.0000000000000D+00  0.0000000000000D+00
   321  3.2000000000000D+00  0.0000000000000D+00  0.0000000000000D+00
   322  3.2100000000000D+00  0.0000000000000D+00  0.0000000000000D+00
   323  3.2200000000000D+00  0.0000000000000D+00  0.0000000000000D+00
   324  3.2300000000000D+00  0.0000000000000D+00  0.0000000000000D+00
   325  3.2400000000000D+00  0.0000000000000D+00  0.0000000000000D+00
   326  3.2500000000000D+00  0.0000000000000D+00  0.0000000000000D+00
   327  3.2600000000000D+00  0.0000000000000D+00  0.0000000000000D+00
   328  3.2700000000000D+00  0.0000000000000D+00  0.0000000000000D+00
   329  3.2800000000000D+00  0.0000000000000D+00  0.0000000000000D+00
   330  3.2900000000000D+00  0.0000000000000D+00  0.0000000000000D+00
   331  3.3000000000000D+00  0.0000000000000D+00  0.0000000000000D+00
   332  3.3100000000000D+00  0.0000000000000D+00  0.0000000000000D+00
   333  3.3200000000000D+00  0.0000000000000D+00  0.0000000000000D+00
   334  3.3300000000000D+00  0.0000000000000D+00  0.0000000000000D+00
   335  3.3400000000000D+00  0.0000000000000D+00  0.0000000000000D+00
   336  3.3500000000000D+00  0.0000000000000D+00  0.0000000000000D+00
   337  3.3600000000000D+00  0.0000000000000D+00  0.0000000000000D+00
   338  3.3700000000000D+00  0.0000000000000D+00  0.0000000000000D+00
   339  3.3800000000000D+00  0.0000000000000D+00  0.0000000000000D+00
   340  3.3900000000000D+00  0.0000000000000D+00  0.0000000000000D+00
   341  3.4000000000000D+00  0.0000000000000D+00  0.0000000000000D+00
   342  3.4100000000000D+00  0.0000000000000D+00  0.0000000000000D+00
   343  3.4200000000000D+00  0.0000000000000D+00  0.0000000000000D+00
   344  3.4300000000000D+00  0.0000000000000D+00  0.0000000000000D+00
   345  3.4400000000000D+00  0.0000000000000D+00  0.0000000000000D+00
   346  3.4500000000000D+00  0.0000000000000D+00  0.0000000000000D+00
   347  3.4600000000000D+00  0.0000000000000D+00  0.0000000000000D+00
   348  3.4700000000000D+00  0.0000000000000D+00  0.0000000000000D+00
   349  3.4800000000000D+00  0.0000000000000D+00  0.0000000000000D+00
   350  3.4900000000000D+00  0.0000000000000D+00  0.0000000000000D+00
   351  3.5000000000000D+00  0.0000000000000D+00  0.0000000000000D+00
   352  3.5100000000000D+00  0.0000000000000D+00  0.0000000000000D+00
   353  3.5200000000000D+00  0.0000000000000D+00  0.0000000000000D+00
   354  3.5300000000000D+00  0.0000000000000D+00  0.0000000000000D+00
   355  3.5400000000000D+00  0.0000000000000D+00  0.0000000000000D+00
   356  3.5500000000000D+00  0.0000000000000D+00  0.0000000000000D+00
   357  3.5600000000000D+00  0.0000000000000D+00  0.0000000000000D+00
   358  3.5700000000000D+00  0.0000000000000D+00  0.0000000000000D+00
   359  3.5800000000000D+00  0.0000000000000D+00  0.0000000000000D+00
   360  3.5900000000000D+00  0.0000000000000D+00  0.0000000000000D+00
   361  3.6000000000000D+00  0.0000000000000D+00  0.0000000000000D+00
   362  3.6100000000000D+00  0.0000000000000D+00  0.0000000000000D+00
   363  3.6200000000000D+00  0.0000000000000D+00  0.0000000000000D+00
   364  3.6300000000000D+00  0.0000000000000D+00  0.0000000000000D+00
   365  3.6400000000000D+00  0.0000000000000D+00  0.0000000000000D+00
   366  3.6500000000000D+00  0.0000000000000D+00  0.0000000000000D+00
   367  3.6600000000000D+00  0.0000000000000D+00  0.0000000000000D+00
   368  3.6700000000000D+00  0.0000000000000D+00  0.0000000000000D+00
   369  3.6800000000000D+00  0.0000000000000D+00  0.0000000000000D+00
   370  3.6900000000000D+00  0.0000000000000D+00  0.0000000000000D+00
   371  3.7000000000000D+00  0.0000000000000D+00  0.0000000000000D+00
   372  3.7100000000000D+00  0.0000000000000D+00  0.0000000000000D+00
   373  3.7200000000000D+00  0.0000000000000D+00  0.0000000000000D+00
   374  3.7300000000000D+00  0.0000000000000D+00  0.0000000000000D+00
   375  3.7400000000000D+00  0.0000000000000D+00  0.0000000000000D+00
   376  3.7500000000000D+00  0.0000000000000D+00  0.0000000000000D+00
   377  3.7600000000000D+00  0.0000000000000D+00  0.0000000000000D+00
   378  3.7700000000000D+00  0.0000000000000D+00  0.0000000000000D+00
   379  3.7800000000000D+00  0.0000000000000D+00  0.0000000000000D+00
   380  3.7900000000000D+00  0.0000000000000D+00  0.0000000000000D+00
   381  3.8000000000000D+00  0.0000000000000D+00  0.0000000000000D+00
   382  3.8100000000000D+00  0.0000000000000D+00  0.0000000000000D+00
   383  3.8200000000000D+00  0.0000000000000D+00  0.0000000000000D+00
   384  3.8300000000000D+00  0.0000000000000D+00  0.0000000000000D+00
   385  3.8400000000000D+00  0.0000000000000D+00  0.0000000000000D+00
   386  3.8500000000000D+00  0.0000000000000D+00  0.0000000000000D+00
   387  3.8600000000000D+00  0.0000000000000D+00  0.0000000000000D+00
   388  3.8700000000000D+00  0.0000000000000D+00  0.0000000000000D+00
   389  3.8800000000000D+00  0.0000000000000D+00  0.0000000000000D+00
   390  3.8900000000000D+00  0.0000000000000D+00  0.0000000000000D+00
   391  3.9000000000000D+00  0.0000000000000D+00  0.0000000000000D+00
   392  3.9100000000000D+00  0.0000000000000D+00  0.0000000000000D+00
   393  3.9200000000000D+00  0.0000000000000D+00  0.0000000000000D+00
   394  3.9300000000000D+00  0.0000000000000D+00  0.0000000000000D+00
   395  3.9400000000000D+00  0.0000000000000D+00  0.0000000000000D+00
   396  3.9500000000000D+00  0.0000000000000D+00  0.0000000000000D+00
   397  3.9600000000000D+00  0.0000000000000D+00  0.0000000000000D+00
   398  3.9700000000000D+00  0.0000000000000D+00  0.0000000000000D+00
   399  3.9800000000000D+00  0.0000000000000D+00  0.0000000000000D+00
   400  3.9900000000000D+00  0.0000000000000D+00  0.0000000000000D+00
   1                        -6.4378211386426D+00 -1.9670254300859D+00
     1  0.0000000000000D+00 -2.1177823383844D-10  8.8497596750781D-10
     2  1.0000000000000D-02  1.8719560274521D-03 -5.1229562965357D-04
     3  2.0000000000000D-02  7.4803877168716D-03 -2.0465890286605D-03
     4  3.0000000000000D-02  1.6803002923729D-02 -4.5950828135498D-03
     5  4.0000000000000D-02  2.9802704984501D-02 -8.1447254672397D-03
     6  5.0000000000000D-02  4.6427678533711D-02 -1.2677129266872D-02
     7  6.0000000000000D-02  6.6611510538858D-02 -1.8168458845870D-02
     8  7.0000000000000D-02  9.0273347419390D-02 -2.4589293792403D-02
     9  8.0000000000000D-02  1.1731808932760D-01 -3.1904469571454D-02
    10  9.0000000000000D-02  1.4763662285557D-01 -4.0072901880083D-02
    11  1.0000000000000D-01  1.8110609358717D-01 -4.9047400291127D-02
    12  1.1000000000000D-01  2.1759022003361D-01 -5.8774477699185D-02
    13  1.2000000000000D-01  2.5693965057060D-01 -6.9194162642805D-02
    14  1.3000000000000D-01  2.9899236503160D-01 -8.0239822029907D-02
    15  1.4000000000000D-01  3.4357412260146D-01 -9.1838002130603D-02
    16  1.5000000000000D-01  3.9049895759594D-01 -1.0390829591727D-01
    17  1.6000000000000D-01  4.3956972460349D-01 -1.1636324491982D-01
    18  1.7000000000000D-01  4.9057869430501D-01 -1.2910828372224D-01
    19  1.8000000000000D-01  5.4330820107522D-01 -1.4204173505148D-01
    20  1.9000000000000D-01  5.9753134320591D-01 -1.5505486310307D-01
    21  2.0000000000000D-01  6.5301273627838D-01 -1.6803199230955D-01
    22  2.1000000000000D-01  7.0950931985147D-01 -1.8085069819171D-01