Ne    ONCVPSP-3.3.0  r_core=   1.31204   1.70576
     10.0000      8.0000      220117    zatom,zion,pspd
     8      11   1     4   400     0    pspcod,pspxc,lmax,lloc,mmax,r2well
  3.99000000  0.00000000  0.00000000    rchrg fchrg qchrg
     2     2     0     0     0    nproj
     1     1           extension_switch
   0                         2.3086902420924D+00 -4.7500541380412D-01
     1  0.0000000000000D+00  1.2886495204256D-09  5.1217410867999D-10
     2  1.0000000000000D-02  7.6676620913053D-02  1.3513938556264D-02
     3  2.0000000000000D-02  1.5324089922788D-01  2.7124876641620D-02
     4  3.0000000000000D-02  2.2957922575597D-01  4.0928751201026D-02
     5  4.0000000000000D-02  3.0557548296669D-01  5.5019385611290D-02
     6  5.0000000000000D-02  3.8110985258002D-01  6.9487461765532D-02
     7  6.0000000000000D-02  4.5605769634999D-01  8.4419526432443D-02
     8  7.0000000000000D-02  5.3028853290439D-01  9.9897042707420D-02
     9  8.0000000000000D-02  6.0366513221777D-01  1.1599549686044D-01
    10  9.0000000000000D-02  6.7604274771327D-01  1.3278357025646D-01
    11  1.0000000000000D-01  7.4726850413410D-01  1.5032238528525D-01
    12  1.1000000000000D-01  8.1718095721946D-01  1.6866483339687D-01
    13  1.2000000000000D-01  8.8560983888835D-01  1.8785499240742D-01
    14  1.3000000000000D-01  9.5237599910614D-01  2.0792763922565D-01
    15  1.4000000000000D-01  1.0172915529144D+00  2.2890786306875D-01
    16  1.5000000000000D-01  1.0801602382755D+00  2.5081078309493D-01
    17  1.6000000000000D-01  1.1407779874581D+00  2.7364137319650D-01
    18  1.7000000000000D-01  1.1989337116980D+00  2.9739439548198D-01
    19  1.8000000000000D-01  1.2544102958559D+00  3.2205444274431D-01
    20  1.9000000000000D-01  1.3069857967866D+00  3.4759608897782D-01
    21  2.0000000000000D-01  1.3564348361819D+00  3.7398414578429D-01
    22  2.1000000000000D-01  1.4025301757776D+00  4.0117402131144D-01
    23  2.2000000000000D-01  1.4450444600687D+00  4.2911217720959D-01
    24  2.3000000000000D-01  1.4837521090855D+00  4.5773667798772D-01
    25  2.4000000000000D-01  1.5184313413821D+00  4.8697782611100D-01
    26  2.5000000000000D-01  1.5488663052102D+00  5.1675887522044D-01
    27  2.6000000000000D-01  1.5748492939179D+00  5.4699681298229D-01
    28  2.7000000000000D-01  1.5961830199610D+00  5.7760320430111D-01
    29  2.8000000000000D-01  1.6126829205562D+00  6.0848508496466D-01
    30  2.9000000000000D-01  1.6241794669658D+00  6.3954589523810D-01
    31  3.0000000000000D-01  1.6305204486981D+00  6.7068644249745D-01
    32  3.1000000000000D-01  1.6315732035451D+00  7.0180588169145D-01
    33  3.2000000000000D-01  1.6272267643708D+00  7.3280270225105D-01
    34  3.3000000000000D-01  1.6173938939114D+00  7.6357571002957D-01
    35  3.4000000000000D-01  1.6020129795497D+00  7.9402499295309D-01
    36  3.5000000000000D-01  1.5810497610815D+00  8.2405285929084D-01
    37  3.6000000000000D-01  1.5544988658872D+00  8.5356473781478D-01
    38  3.7000000000000D-01  1.5223851276457D+00  8.8247002960417D-01
    39  3.8000000000000D-01  1.4847646667634D+00  9.1068290185739D-01
    40  3.9000000000000D-01  1.4417257130201D+00  9.3812301479378D-01
    41  4.0000000000000D-01  1.3933891535218D+00  9.6471617355465D-01
    42  4.1000000000000D-01  1.3399087918875D+00  9.9039489793433D-01
    43  4.2000000000000D-01  1.2814713076292D+00  1.0150989037795D+00
    44  4.3000000000000D-01  1.2182959079010D+00  1.0387754909765D+00
    45  4.4000000000000D-01  1.1506336671395D+00  1.0613798340868D+00
    46  4.5000000000000D-01  1.0787665535692D+00  1.0828751728838D+00
    47  4.6000000000000D-01  1.0030061450540D+00  1.1032329012622D+00
    48  4.7000000000000D-01  9.2369204030719D-01  1.1224325542396D+00
    49  4.8000000000000D-01  8.4118997497800D-01  1.1404616940133D+00
    50  4.9000000000000D-01  7.5588965558124D-01  1.1573156972734D+00
    51  5.0000000000000D-01  6.6820232757566D-01  1.1729974471870D+00
    52  5.1000000000000D-01  5.7855809709791D-01  1.1875169346379D+00
    53  5.2000000000000D-01  4.8740302887564D-01  1.2008907744294D+00
    54  5.3000000000000D-01  3.9519604564041D-01  1.2131416432065D+00
    55  5.4000000000000D-01  3.0240565690727D-01  1.2242976468281D+00
    56  5.5000000000000D-01  2.0950654724737D-01  1.2343916258013D+00
    57  5.6000000000000D-01  1.1697605612307D-01  1.2434604081650D+00
    58  5.7000000000000D-01  2.5290582963148D-02  1.2515440198801D+00
    59  5.8000000000000D-01 -6.5078047603780D-02  1.2586848633247D+00
    60  5.9000000000000D-01 -1.5366622457378D-01  1.2649268749134D+00
    61  6.0000000000000D-01 -2.4002215719589D-01  1.2703146731426D+00
    62  6.1000000000000D-01 -3.2370941308254D-01  1.2748927085105D+00
    63  6.2000000000000D-01 -4.0431035181528D-01  1.2787044267693D+00
    64  6.3000000000000D-01 -4.8142941880720D-01  1.2817914568328D+00
    65  6.4000000000000D-01 -5.5469626532650D-01  1.2841928343914D+00
    66  6.5000000000000D-01 -6.2376866212154D-01  1.2859442718768D+00
    67  6.6000000000000D-01 -6.8833517600836D-01  1.2870774848786D+00
    68  6.7000000000000D-01 -7.4811758104961D-01  1.2876195844440D+00
    69  6.8000000000000D-01 -8.0287297856235D-01  1.2875925439086D+00
    70  6.9000000000000D-01 -8.5239560311569D-01  1.2870127480054D+00
    71  7.0000000000000D-01 -8.9651829487111D-01  1.2858906310006D+00
    72  7.1000000000000D-01 -9.3511362205207D-01  1.2842304095228D+00
    73  7.2000000000000D-01 -9.6809464097662D-01  1.2820299145853D+00
    74  7.3000000000000D-01 -9.9541528489792D-01  1.2792805260774D+00
    75  7.4000000000000D-01 -1.0170703768230D+00  1.2759672117296D+00
    76  7.5000000000000D-01 -1.0330952654918D+00  1.2720686712489D+00
    77  7.6000000000000D-01 -1.0435650877484D+00  1.2675575849983D+00
    78  7.7000000000000D-01 -1.0485936645468D+00  1.2624009652738D+00
    79  7.8000000000000D-01 -1.0483320418307D+00  1.2565606069157D+00
    80  7.9000000000000D-01 -1.0429666913714D+00  1.2499936327147D+00
    81  8.0000000000000D-01 -1.0327173903741D+00  1.2426531278417D+00
    82  8.1000000000000D-01 -1.0178348021789D+00  1.2344888563541D+00
    83  8.2000000000000D-01 -9.9859778367206D-01  1.2254480517383D+00
    84  8.3000000000000D-01 -9.7531044803349D-01  1.2154762724385D+00
    85  8.4000000000000D-01 -9.4829901414695D-01  1.2045183124194D+00
    86  8.5000000000000D-01 -9.1790847635744D-01  1.1925191560190D+00
    87  8.6000000000000D-01 -8.8449913024450D-01  1.1794249656794D+00
    88  8.7000000000000D-01 -8.4844299166789D-01  1.1651840906136D+00
    89  8.8000000000000D-01 -8.1012014751196D-01  1.1497480840683D+00
    90  8.9000000000000D-01 -7.6991507729135D-01  1.1330727165991D+00
    91  9.0000000000000D-01 -7.2821298507416D-01  1.1151189726751D+00
    92  9.1000000000000D-01 -6.8539618102166D-01  1.0958540179857D+00
    93  9.2000000000000D-01 -6.4184055123845D-01  1.0752521250287D+00
    94  9.3000000000000D-01 -5.9791215357668D-01  1.0532955449179D+00
    95  9.4000000000000D-01 -5.5396397555345D-01  1.0299753138545D+00
    96  9.5000000000000D-01 -5.1033288864243D-01  1.0052919833538D+00
    97  9.6000000000000D-01 -4.6733683087822D-01  9.7925626410971D-01
    98  9.7000000000000D-01 -4.2527224707326D-01  9.5188957428312D-01
    99  9.8000000000000D-01 -3.8441181291108D-01  9.2322448403118D-01
   100  9.9000000000000D-01 -3.4500246583686D-01  8.9330504924010D-01
   101  1.0000000000000D+00 -3.0726376209390D-01  8.6218702864077D-01
   102  1.0100000000000D+00 -2.7138657541083D-01  8.2993797979995D-01
   103  1.0200000000000D+00 -2.3753214884619D-01  7.9663723084495D-01
   104  1.0300000000000D+00 -2.0583150705491D-01  7.6237572622804D-01
   105  1.0400000000000D+00 -1.7638523215959D-01  7.2725574623047D-01
   106  1.0500000000000D+00 -1.4926360198324D-01  6.9139050141706D-01
   107  1.0600000000000D+00 -1.2450708511071D-01  6.5490360471596D-01
   108  1.0700000000000D+00 -1.0212718310808D-01  6.1792842520983D-01
   109  1.0800000000000D+00 -8.2107605976511D-02  5.8060732917384D-01
   110  1.0900000000000D+00 -6.4405763105503D-02  5.4309081519431D-01
   111  1.1000000000000D+00 -4.8954548205969D-02  5.0553655148913D-01
   112  1.1100000000000D+00 -3.5664392988179D-02  4.6810832481261D-01
   113  1.1200000000000D+00 -2.4425561369521D-02  4.3097491133724D-01
   114  1.1300000000000D+00 -1.5110652867346D-02  3.9430888096128D-01
   115  1.1400000000000D+00 -7.5772817378672D-03  3.5828534719704D-01
   116  1.1500000000000D+00 -1.6708956104529D-03  3.2308067573520D-01
   117  1.1600000000000D+00  2.7723038430817D-03  2.8887116517795D-01
   118  1.1700000000000D+00  5.9223770742305D-03  2.5583171389124D-01
   119  1.1800000000000D+00  7.9526393990974D-03  2.2413448720735D-01
   120  1.1900000000000D+00  9.0366705347165D-03  1.9394759933565D-01
   121  1.2000000000000D+00  9.3453806892747D-03  1.6543382415458D-01
   122  1.2100000000000D+00  9.0441727206839D-03  1.3874934894774D-01
   123  1.2200000000000D+00  8.2902388758082D-03  1.1404258476253D-01
   124  1.2300000000000D+00  7.2300286811271D-03  9.1453046362435D-02
   125  1.2400000000000D+00  5.9969227616690D-03  7.1110314093445D-02
   126  1.2500000000000D+00  4.7091459940391D-03  5.3133089483264D-02
   127  1.2600000000000D+00  3.4679489650700D-03  3.7628354801563D-02
   128  1.2700000000000D+00  2.3566831299177D-03  2.4695869198110D-02
   129  1.2800000000000D+00  1.4368348540572D-03  1.4403477493281D-02
   130  1.2900000000000D+00  7.4542846573386D-04  6.7826435112458D-03
   131  1.3000000000000D+00  3.3787006519499D-04  2.1055479582638D-03
   132  1.3100000000000D+00  1.6762668732838D-04  1.3492387198620D-04
   133  1.3200000000000D+00  5.9800907569778D-05 -1.7292322484884D-04
   134  1.3300000000000D+00 -6.4994135264680D-06  2.9005981368142D-05
   135  1.3400000000000D+00 -5.9847359056549D-06  3.3492134277239D-05
   136  1.3500000000000D+00  2.6094461210185D-06 -9.9276118270218D-06
   137  1.3600000000000D+00 -1.5246926248319D-08  2.4565397039398D-09
   138  1.3700000000000D+00 -3.7335435051797D-07  6.0153749729534D-08
   139  1.3800000000000D+00  0.0000000000000D+00  0.0000000000000D+00
   140  1.3900000000000D+00  0.0000000000000D+00  0.0000000000000D+00
   141  1.4000000000000D+00  0.0000000000000D+00  0.0000000000000D+00
   142  1.4100000000000D+00  0.0000000000000D+00  0.0000000000000D+00
   143  1.4200000000000D+00  0.0000000000000D+00  0.0000000000000D+00
   144  1.4300000000000D+00  0.0000000000000D+00  0.0000000000000D+00
   145  1.4400000000000D+00  0.0000000000000D+00  0.0000000000000D+00
   146  1.4500000000000D+00  0.0000000000000D+00  0.0000000000000D+00
   147  1.4600000000000D+00  0.0000000000000D+00  0.0000000000000D+00
   148  1.4700000000000D+00  0.0000000000000D+00  0.0000000000000D+00
   149  1.4800000000000D+00  0.0000000000000D+00  0.0000000000000D+00
   150  1.4900000000000D+00  0.0000000000000D+00  0.0000000000000D+00
   151  1.5000000000000D+00  0.0000000000000D+00  0.0000000000000D+00
   152  1.5100000000000D+00  0.0000000000000D+00  0.0000000000000D+00
   153  1.5200000000000D+00  0.0000000000000D+00  0.0000000000000D+00
   154  1.5300000000000D+00  0.0000000000000D+00  0.0000000000000D+00
   155  1.5400000000000D+00  0.0000000000000D+00  0.0000000000000D+00
   156  1.5500000000000D+00  0.0000000000000D+00  0.0000000000000D+00
   157  1.5600000000000D+00  0.0000000000000D+00  0.0000000000000D+00
   158  1.5700000000000D+00  0.0000000000000D+00  0.0000000000000D+00
   159  1.5800000000000D+00  0.0000000000000D+00  0.0000000000000D+00
   160  1.5900000000000D+00  0.0000000000000D+00  0.0000000000000D+00
   161  1.6000000000000D+00  0.0000000000000D+00  0.0000000000000D+00
   162  1.6100000000000D+00  0.0000000000000D+00  0.0000000000000D+00
   163  1.6200000000000D+00  0.0000000000000D+00  0.0000000000000D+00
   164  1.6300000000000D+00  0.0000000000000D+00  0.0000000000000D+00
   165  1.6400000000000D+00  0.0000000000000D+00  0.0000000000000D+00
   166  1.6500000000000D+00  0.0000000000000D+00  0.0000000000000D+00
   167  1.6600000000000D+00  0.0000000000000D+00  0.0000000000000D+00
   168  1.6700000000000D+00  0.0000000000000D+00  0.0000000000000D+00
   169  1.6800000000000D+00  0.0000000000000D+00  0.0000000000000D+00
   170  1.6900000000000D+00  0.0000000000000D+00  0.0000000000000D+00
   171  1.7000000000000D+00  0.0000000000000D+00  0.0000000000000D+00
   172  1.7100000000000D+00  0.0000000000000D+00  0.0000000000000D+00
   173  1.7200000000000D+00  0.0000000000000D+00  0.0000000000000D+00
   174  1.7300000000000D+00  0.0000000000000D+00  0.0000000000000D+00
   175  1.7400000000000D+00  0.0000000000000D+00  0.0000000000000D+00
   176  1.7500000000000D+00  0.0000000000000D+00  0.0000000000000D+00
   177  1.7600000000000D+00  0.0000000000000D+00  0.0000000000000D+00
   178  1.7700000000000D+00  0.0000000000000D+00  0.0000000000000D+00
   179  1.7800000000000D+00  0.0000000000000D+00  0.0000000000000D+00
   180  1.7900000000000D+00  0.0000000000000D+00  0.0000000000000D+00
   181  1.8000000000000D+00  0.0000000000000D+00  0.0000000000000D+00
   182  1.8100000000000D+00  0.0000000000000D+00  0.0000000000000D+00
   183  1.8200000000000D+00  0.0000000000000D+00  0.0000000000000D+00
   184  1.8300000000000D+00  0.0000000000000D+00  0.0000000000000D+00
   185  1.8400000000000D+00  0.0000000000000D+00  0.0000000000000D+00
   186  1.8500000000000D+00  0.0000000000000D+00  0.0000000000000D+00
   187  1.8600000000000D+00  0.0000000000000D+00  0.0000000000000D+00
   188  1.8700000000000D+00  0.0000000000000D+00  0.0000000000000D+00
   189  1.8800000000000D+00  0.0000000000000D+00  0.0000000000000D+00
   190  1.8900000000000D+00  0.0000000000000D+00  0.0000000000000D+00
   191  1.9000000000000D+00  0.0000000000000D+00  0.0000000000000D+00
   192  1.9100000000000D+00  0.0000000000000D+00  0.0000000000000D+00
   193  1.9200000000000D+00  0.0000000000000D+00  0.0000000000000D+00
   194  1.9300000000000D+00  0.0000000000000D+00  0.0000000000000D+00
   195  1.9400000000000D+00  0.0000000000000D+00  0.0000000000000D+00
   196  1.9500000000000D+00  0.0000000000000D+00  0.0000000000000D+00
   197  1.9600000000000D+00  0.0000000000000D+00  0.0000000000000D+00
   198  1.9700000000000D+00  0.0000000000000D+00  0.0000000000000D+00
   199  1.9800000000000D+00  0.0000000000000D+00  0.0000000000000D+00
   200  1.9900000000000D+00  0.0000000000000D+00  0.0000000000000D+00
   201  2.0000000000000D+00  0.0000000000000D+00  0.0000000000000D+00
   202  2.0100000000000D+00  0.0000000000000D+00  0.0000000000000D+00
   203  2.0200000000000D+00  0.0000000000000D+00  0.0000000000000D+00
   204  2.0300000000000D+00  0.0000000000000D+00  0.0000000000000D+00
   205  2.0400000000000D+00  0.0000000000000D+00  0.0000000000000D+00
   206  2.0500000000000D+00  0.0000000000000D+00  0.0000000000000D+00
   207  2.0600000000000D+00  0.0000000000000D+00  0.0000000000000D+00
   208  2.0700000000000D+00  0.0000000000000D+00  0.0000000000000D+00
   209  2.0800000000000D+00  0.0000000000000D+00  0.0000000000000D+00
   210  2.0900000000000D+00  0.0000000000000D+00  0.0000000000000D+00
   211  2.1000000000000D+00  0.0000000000000D+00  0.0000000000000D+00
   212  2.1100000000000D+00  0.0000000000000D+00  0.0000000000000D+00
   213  2.1200000000000D+00  0.0000000000000D+00  0.0000000000000D+00
   214  2.1300000000000D+00  0.0000000000000D+00  0.0000000000000D+00
   215  2.1400000000000D+00  0.0000000000000D+00  0.0000000000000D+00
   216  2.1500000000000D+00  0.0000000000000D+00  0.0000000000000D+00
   217  2.1600000000000D+00  0.0000000000000D+00  0.0000000000000D+00
   218  2.1700000000000D+00  0.0000000000000D+00  0.0000000000000D+00
   219  2.1800000000000D+00  0.0000000000000D+00  0.0000000000000D+00
   220  2.1900000000000D+00  0.0000000000000D+00  0.0000000000000D+00
   221  2.2000000000000D+00  0.0000000000000D+00  0.0000000000000D+00
   222  2.2100000000000D+00  0.0000000000000D+00  0.0000000000000D+00
   223  2.2200000000000D+00  0.0000000000000D+00  0.0000000000000D+00
   224  2.2300000000000D+00  0.0000000000000D+00  0.0000000000000D+00
   225  2.2400000000000D+00  0.0000000000000D+00  0.0000000000000D+00
   226  2.2500000000000D+00  0.0000000000000D+00  0.0000000000000D+00
   227  2.2600000000000D+00  0.0000000000000D+00  0.0000000000000D+00
   228  2.2700000000000D+00  0.0000000000000D+00  0.0000000000000D+00
   229  2.2800000000000D+00  0.0000000000000D+00  0.0000000000000D+00
   230  2.2900000000000D+00  0.0000000000000D+00  0.0000000000000D+00
   231  2.3000000000000D+00  0.0000000000000D+00  0.0000000000000D+00
   232  2.3100000000000D+00  0.0000000000000D+00  0.0000000000000D+00
   233  2.3200000000000D+00  0.0000000000000D+00  0.0000000000000D+00
   234  2.3300000000000D+00  0.0000000000000D+00  0.0000000000000D+00
   235  2.3400000000000D+00  0.0000000000000D+00  0.0000000000000D+00
   236  2.3500000000000D+00  0.0000000000000D+00  0.0000000000000D+00
   237  2.3600000000000D+00  0.0000000000000D+00  0.0000000000000D+00
   238  2.3700000000000D+00  0.0000000000000D+00  0.0000000000000D+00
   239  2.3800000000000D+00  0.0000000000000D+00  0.0000000000000D+00
   240  2.3900000000000D+00  0.0000000000000D+00  0.0000000000000D+00
   241  2.4000000000000D+00  0.0000000000000D+00  0.0000000000000D+00
   242  2.4100000000000D+00  0.0000000000000D+00  0.0000000000000D+00
   243  2.4200000000000D+00  0.0000000000000D+00  0.0000000000000D+00
   244  2.4300000000000D+00  0.0000000000000D+00  0.0000000000000D+00
   245  2.4400000000000D+00  0.0000000000000D+00  0.0000000000000D+00
   246  2.4500000000000D+00  0.0000000000000D+00  0.0000000000000D+00
   247  2.4600000000000D+00  0.0000000000000D+00  0.0000000000000D+00
   248  2.4700000000000D+00  0.0000000000000D+00  0.0000000000000D+00
   249  2.4800000000000D+00  0.0000000000000D+00  0.0000000000000D+00
   250  2.4900000000000D+00  0.0000000000000D+00  0.0000000000000D+00
   251  2.5000000000000D+00  0.0000000000000D+00  0.0000000000000D+00
   252  2.5100000000000D+00  0.0000000000000D+00  0.0000000000000D+00
   253  2.5200000000000D+00  0.0000000000000D+00  0.0000000000000D+00
   254  2.5300000000000D+00  0.0000000000000D+00  0.0000000000000D+00
   255  2.5400000000000D+00  0.0000000000000D+00  0.0000000000000D+00
   256  2.5500000000000D+00  0.0000000000000D+00  0.0000000000000D+00
   257  2.5600000000000D+00  0.0000000000000D+00  0.0000000000000D+00
   258  2.5700000000000D+00  0.0000000000000D+00  0.0000000000000D+00
   259  2.5800000000000D+00  0.0000000000000D+00  0.0000000000000D+00
   260  2.5900000000000D+00  0.0000000000000D+00  0.0000000000000D+00
   261  2.6000000000000D+00  0.0000000000000D+00  0.0000000000000D+00
   262  2.6100000000000D+00  0.0000000000000D+00  0.0000000000000D+00
   263  2.6200000000000D+00  0.0000000000000D+00  0.0000000000000D+00
   264  2.6300000000000D+00  0.0000000000000D+00  0.0000000000000D+00
   265  2.6400000000000D+00  0.0000000000000D+00  0.0000000000000D+00
   266  2.6500000000000D+00  0.0000000000000D+00  0.0000000000000D+00
   267  2.6600000000000D+00  0.0000000000000D+00  0.0000000000000D+00
   268  2.6700000000000D+00  0.0000000000000D+00  0.0000000000000D+00
   269  2.6800000000000D+00  0.0000000000000D+00  0.0000000000000D+00
   270  2.6900000000000D+00  0.0000000000000D+00  0.0000000000000D+00
   271  2.7000000000000D+00  0.0000000000000D+00  0.0000000000000D+00
   272  2.7100000000000D+00  0.0000000000000D+00  0.0000000000000D+00
   273  2.7200000000000D+00  0.0000000000000D+00  0.0000000000000D+00
   274  2.7300000000000D+00  0.0000000000000D+00  0.0000000000000D+00
   275  2.7400000000000D+00  0.0000000000000D+00  0.0000000000000D+00
   276  2.7500000000000D+00  0.0000000000000D+00  0.0000000000000D+00
   277  2.7600000000000D+00  0.0000000000000D+00  0.0000000000000D+00
   278  2.7700000000000D+00  0.0000000000000D+00  0.0000000000000D+00
   279  2.7800000000000D+00  0.0000000000000D+00  0.0000000000000D+00
   280  2.7900000000000D+00  0.0000000000000D+00  0.0000000000000D+00
   281  2.8000000000000D+00  0.0000000000000D+00  0.0000000000000D+00
   282  2.8100000000000D+00  0.0000000000000D+00  0.0000000000000D+00
   283  2.8200000000000D+00  0.0000000000000D+00  0.0000000000000D+00
   284  2.8300000000000D+00  0.0000000000000D+00  0.0000000000000D+00
   285  2.8400000000000D+00  0.0000000000000D+00  0.0000000000000D+00
   286  2.8500000000000D+00  0.0000000000000D+00  0.0000000000000D+00
   287  2.8600000000000D+00  0.0000000000000D+00  0.0000000000000D+00
   288  2.8700000000000D+00  0.0000000000000D+00  0.0000000000000D+00
   289  2.8800000000000D+00  0.0000000000000D+00  0.0000000000000D+00
   290  2.8900000000000D+00  0.0000000000000D+00  0.0000000000000D+00
   291  2.9000000000000D+00  0.0000000000000D+00  0.0000000000000D+00
   292  2.9100000000000D+00  0.0000000000000D+00  0.0000000000000D+00
   293  2.9200000000000D+00  0.0000000000000D+00  0.0000000000000D+00
   294  2.9300000000000D+00  0.0000000000000D+00  0.0000000000000D+00
   295  2.9400000000000D+00  0.0000000000000D+00  0.0000000000000D+00
   296  2.9500000000000D+00  0.0000000000000D+00  0.0000000000000D+00
   297  2.9600000000000D+00  0.0000000000000D+00  0.0000000000000D+00
   298  2.9700000000000D+00  0.0000000000000D+00  0.0000000000000D+00
   299  2.9800000000000D+00  0.0000000000000D+00  0.0000000000000D+00
   300  2.9900000000000D+00  0.0000000000000D+00  0.0000000000000D+00
   301  3.0000000000000D+00  0.0000000000000D+00  0.0000000000000D+00
   302  3.0100000000000D+00  0.0000000000000D+00  0.0000000000000D+00
   303  3.0200000000000D+00  0.0000000000000D+00  0.0000000000000D+00
   304  3.0300000000000D+00  0.0000000000000D+00  0.0000000000000D+00
   305  3.0400000000000D+00  0.0000000000000D+00  0.0000000000000D+00
   306  3.0500000000000D+00  0.0000000000000D+00  0.0000000000000D+00
   307  3.0600000000000D+00  0.0000000000000D+00  0.0000000000000D+00
   308  3.0700000000000D+00  0.0000000000000D+00  0.0000000000000D+00
   309  3.0800000000000D+00  0.0000000000000D+00  0.0000000000000D+00
   310  3.0900000000000D+00  0.0000000000000D+00  0.0000000000000D+00
   311  3.1000000000000D+00  0.0000000000000D+00  0.0000000000000D+00
   312  3.1100000000000D+00  0.0000000000000D+00  0.0000000000000D+00
   313  3.1200000000000D+00  0.0000000000000D+00  0.0000000000000D+00
   314  3.1300000000000D+00  0.0000000000000D+00  0.0000000000000D+00
   315  3.1400000000000D+00  0.0000000000000D+00  0.0000000000000D+00
   316  3.1500000000000D+00  0.0000000000000D+00  0.0000000000000D+00
   317  3.1600000000000D+00  0.0000000000000D+00  0.0000000000000D+00
   318  3.1700000000000D+00  0.0000000000000D+00  0.0000000000000D+00
   319  3.1800000000000D+00  0.0000000000000D+00  0.0000000000000D+00
   320  3.1900000000000D+00  0.0000000000000D+00  0.0000000000000D+00
   321  3.2000000000000D+00  0.0000000000000D+00  0.0000000000000D+00
   322  3.2100000000000D+00  0.0000000000000D+00  0.0000000000000D+00
   323  3.2200000000000D+00  0.0000000000000D+00  0.0000000000000D+00
   324  3.2300000000000D+00  0.0000000000000D+00  0.0000000000000D+00
   325  3.2400000000000D+00  0.0000000000000D+00  0.0000000000000D+00
   326  3.2500000000000D+00  0.0000000000000D+00  0.0000000000000D+00
   327  3.2600000000000D+00  0.0000000000000D+00  0.0000000000000D+00
   328  3.2700000000000D+00  0.0000000000000D+00  0.0000000000000D+00
   329  3.2800000000000D+00  0.0000000000000D+00  0.0000000000000D+00
   330  3.2900000000000D+00  0.0000000000000D+00  0.0000000000000D+00
   331  3.3000000000000D+00  0.0000000000000D+00  0.0000000000000D+00
   332  3.3100000000000D+00  0.0000000000000D+00  0.0000000000000D+00
   333  3.3200000000000D+00  0.0000000000000D+00  0.0000000000000D+00
   334  3.3300000000000D+00  0.0000000000000D+00  0.0000000000000D+00
   335  3.3400000000000D+00  0.0000000000000D+00  0.0000000000000D+00
   336  3.3500000000000D+00  0.0000000000000D+00  0.0000000000000D+00
   337  3.3600000000000D+00  0.0000000000000D+00  0.0000000000000D+00
   338  3.3700000000000D+00  0.0000000000000D+00  0.0000000000000D+00
   339  3.3800000000000D+00  0.0000000000000D+00  0.0000000000000D+00
   340  3.3900000000000D+00  0.0000000000000D+00  0.0000000000000D+00
   341  3.4000000000000D+00  0.0000000000000D+00  0.0000000000000D+00
   342  3.4100000000000D+00  0.0000000000000D+00  0.0000000000000D+00
   343  3.4200000000000D+00  0.0000000000000D+00  0.0000000000000D+00
   344  3.4300000000000D+00  0.0000000000000D+00  0.0000000000000D+00
   345  3.4400000000000D+00  0.0000000000000D+00  0.0000000000000D+00
   346  3.4500000000000D+00  0.0000000000000D+00  0.0000000000000D+00
   347  3.4600000000000D+00  0.0000000000000D+00  0.0000000000000D+00
   348  3.4700000000000D+00  0.0000000000000D+00  0.0000000000000D+00
   349  3.4800000000000D+00  0.0000000000000D+00  0.0000000000000D+00
   350  3.4900000000000D+00  0.0000000000000D+00  0.0000000000000D+00
   351  3.5000000000000D+00  0.0000000000000D+00  0.0000000000000D+00
   352  3.5100000000000D+00  0.0000000000000D+00  0.0000000000000D+00
   353  3.5200000000000D+00  0.0000000000000D+00  0.0000000000000D+00
   354  3.5300000000000D+00  0.0000000000000D+00  0.0000000000000D+00
   355  3.5400000000000D+00  0.0000000000000D+00  0.0000000000000D+00
   356  3.5500000000000D+00  0.0000000000000D+00  0.0000000000000D+00
   357  3.5600000000000D+00  0.0000000000000D+00  0.0000000000000D+00
   358  3.5700000000000D+00  0.0000000000000D+00  0.0000000000000D+00
   359  3.5800000000000D+00  0.0000000000000D+00  0.0000000000000D+00
   360  3.5900000000000D+00  0.0000000000000D+00  0.0000000000000D+00
   361  3.6000000000000D+00  0.0000000000000D+00  0.0000000000000D+00
   362  3.6100000000000D+00  0.0000000000000D+00  0.0000000000000D+00
   363  3.6200000000000D+00  0.0000000000000D+00  0.0000000000000D+00
   364  3.6300000000000D+00  0.0000000000000D+00  0.0000000000000D+00
   365  3.6400000000000D+00  0.0000000000000D+00  0.0000000000000D+00
   366  3.6500000000000D+00  0.0000000000000D+00  0.0000000000000D+00
   367  3.6600000000000D+00  0.0000000000000D+00  0.0000000000000D+00
   368  3.6700000000000D+00  0.0000000000000D+00  0.0000000000000D+00
   369  3.6800000000000D+00  0.0000000000000D+00  0.0000000000000D+00
   370  3.6900000000000D+00  0.0000000000000D+00  0.0000000000000D+00
   371  3.7000000000000D+00  0.0000000000000D+00  0.0000000000000D+00
   372  3.7100000000000D+00  0.0000000000000D+00  0.0000000000000D+00
   373  3.7200000000000D+00  0.0000000000000D+00  0.0000000000000D+00
   374  3.7300000000000D+00  0.0000000000000D+00  0.0000000000000D+00
   375  3.7400000000000D+00  0.0000000000000D+00  0.0000000000000D+00
   376  3.7500000000000D+00  0.0000000000000D+00  0.0000000000000D+00
   377  3.7600000000000D+00  0.0000000000000D+00  0.0000000000000D+00
   378  3.7700000000000D+00  0.0000000000000D+00  0.0000000000000D+00
   379  3.7800000000000D+00  0.0000000000000D+00  0.0000000000000D+00
   380  3.7900000000000D+00  0.0000000000000D+00  0.0000000000000D+00
   381  3.8000000000000D+00  0.0000000000000D+00  0.0000000000000D+00
   382  3.8100000000000D+00  0.0000000000000D+00  0.0000000000000D+00
   383  3.8200000000000D+00  0.0000000000000D+00  0.0000000000000D+00
   384  3.8300000000000D+00  0.0000000000000D+00  0.0000000000000D+00
   385  3.8400000000000D+00  0.0000000000000D+00  0.0000000000000D+00
   386  3.8500000000000D+00  0.0000000000000D+00  0.0000000000000D+00
   387  3.8600000000000D+00  0.0000000000000D+00  0.0000000000000D+00
   388  3.8700000000000D+00  0.0000000000000D+00  0.0000000000000D+00
   389  3.8800000000000D+00  0.0000000000000D+00  0.0000000000000D+00
   390  3.8900000000000D+00  0.0000000000000D+00  0.0000000000000D+00
   391  3.9000000000000D+00  0.0000000000000D+00  0.0000000000000D+00
   392  3.9100000000000D+00  0.0000000000000D+00  0.0000000000000D+00
   393  3.9200000000000D+00  0.0000000000000D+00  0.0000000000000D+00
   394  3.9300000000000D+00  0.0000000000000D+00  0.0000000000000D+00
   395  3.9400000000000D+00  0.0000000000000D+00  0.0000000000000D+00
   396  3.9500000000000D+00  0.0000000000000D+00  0.0000000000000D+00
   397  3.9600000000000D+00  0.0000000000000D+00  0.0000000000000D+00
   398  3.9700000000000D+00  0.0000000000000D+00  0.0000000000000D+00
   399  3.9800000000000D+00  0.0000000000000D+00  0.0000000000000D+00
   400  3.9900000000000D+00  0.0000000000000D+00  0.0000000000000D+00
   1                        -5.1317595693144D+00 -1.6678655587726D+00
     1  0.0000000000000D+00 -9.5308982928088D-11  2.8774543858745D-10
     2  1.0000000000000D-02  1.3984201008380D-03 -3.6895541814026D-04
     3  2.0000000000000D-02  5.5893122099995D-03 -1.4741237635782D-03
     4  3.0000000000000D-02  1.2559579040740D-02 -3.3104058592632D-03
     5  4.0000000000000D-02  2.2287416147864D-02 -5.8692850684012D-03
     6  5.0000000000000D-02  3.4742348668324D-02 -9.1388008353528D-03
     7  6.0000000000000D-02  4.9885283137816D-02 -1.3103512743069D-02
     8  7.0000000000000D-02  6.7668574755346D-02 -1.7744456171675D-02
     9  8.0000000000000D-02  8.8036110563035D-02 -2.3039090930564D-02
    10  9.0000000000000D-02  1.1092340909564D-01 -2.8961244507869D-02
    11  1.0000000000000D-01  1.3625773713167D-01 -3.5481051832875D-02
    12  1.1000000000000D-01  1.6395824424428D-01 -4.2564893676336D-02
    13  1.2000000000000D-01  1.9393611590356D-01 -5.0175336016894D-02
    14  1.3000000000000D-01  2.2609474592158D-01 -5.8271072877027D-02
    15  1.4000000000000D-01  2.6032992905581D-01 -6.6806875276442D-02
    16  1.5000000000000D-01  2.9653007459517D-01 -7.5733549062422D-02
    17  1.6000000000000D-01  3.3457644174447D-01 -8.4997904453648D-02
    18  1.7000000000000D-01  3.7434339759681D-01 -9.4542740174985D-02
    19  1.8000000000000D-01  4.1569869843983D-01 -1.0430684506450D-01
    20  1.9000000000000D-01  4.5850379507931D-01 -1.1422501999973D-01
    21  2.0000000000000D-01  5.0261416278317D-01 -1.2422812291804D-01
    22  2.1000000000000D-01  5.4787965635048D-01 -1.3424313959472D-01