Kr    ONCVPSP-3.3.0  r_core=   1.20142   1.40295   1.61886
     36.0000     26.0000      220117    zatom,zion,pspd
     8      11   2     4   600     0    pspcod,pspxc,lmax,lloc,mmax,r2well
  5.99000000  0.00000000  0.00000000    rchrg fchrg qchrg
     2     2     2     0     0    nproj
     1     1           extension_switch
   0                         4.9165557176696D+00 -4.8545131260912D+00
     1  0.0000000000000D+00 -3.3233418239575D-09 -1.5995271773761D-10
     2  1.0000000000000D-02 -9.5077334624299D-02  6.1008388832250D-02
     3  2.0000000000000D-02 -1.8978267173563D-01  1.2191124144023D-01
     4  3.0000000000000D-02 -2.8374341922983D-01  1.8260334512487D-01
     5  4.0000000000000D-02 -3.7658584087981D-01  2.4298013146915D-01
     6  5.0000000000000D-02 -4.6793459605927D-01  3.0293799159990D-01
     7  6.0000000000000D-02 -5.5741241120431D-01  3.6237458331007D-01
     8  7.0000000000000D-02 -6.4463992295734D-01  4.2118912751952D-01
     9  8.0000000000000D-02 -7.2923572961433D-01  4.7928269171181D-01
    10  9.0000000000000D-02 -8.1081668343814D-01  5.3655845818044D-01
    11  1.0000000000000D-01 -8.8899845166981D-01  5.9292197514503D-01
    12  1.1000000000000D-01 -9.6339636873890D-01  6.4828138905539D-01
    13  1.2000000000000D-01 -1.0336265963254D+00  7.0254765668252D-01
    14  1.3000000000000D-01 -1.0993076016503D+00  7.5563473589833D-01
    15  1.4000000000000D-01 -1.1600619577691D+00  8.0745975436415D-01
    16  1.5000000000000D-01 -1.2155184628110D+00  8.5794315567750D-01
    17  1.6000000000000D-01 -1.2653145681649D+00  9.0700882286211D-01
    18  1.7000000000000D-01 -1.3090990986598D+00  9.5458417942176D-01
    19  1.8000000000000D-01 -1.3465352409466D+00  1.0006002685100D+00
    20  1.9000000000000D-01 -1.3773037696661D+00  1.0449918110891D+00
    21  2.0000000000000D-01 -1.4011064746967D+00  1.0876972442560D+00
    22  2.1000000000000D-01 -1.4176697469244D+00  1.1286587412014D+00
    23  2.2000000000000D-01 -1.4267482746644D+00  1.1678222145244D+00
    24  2.3000000000000D-01 -1.4281287981945D+00  1.2051373048591D+00
    25  2.4000000000000D-01 -1.4216338659065D+00  1.2405573569649D+00
    26  2.5000000000000D-01 -1.4071255324419D+00  1.2740393855914D+00
    27  2.6000000000000D-01 -1.3845089369003D+00  1.3055440335501D+00
    28  2.7000000000000D-01 -1.3537356978689D+00  1.3350355244966D+00
    29  2.8000000000000D-01 -1.3148070616425D+00  1.3624816129658D+00
    30  2.9000000000000D-01 -1.2677767406338D+00  1.3878535341787D+00
    31  3.0000000000000D-01 -1.2127533806166D+00  1.4111259560872D+00
    32  3.1000000000000D-01 -1.1499025981054D+00  1.4322769360087D+00
    33  3.2000000000000D-01 -1.0794485328397D+00  1.4512878840521D+00
    34  3.3000000000000D-01 -1.0016748649775D+00  1.4681435353418D+00
    35  3.4000000000000D-01 -9.1692525217242D-01  1.4828319328026D+00
    36  3.5000000000000D-01 -8.2560314814160D-01  1.4953444219981D+00
    37  3.6000000000000D-01 -7.2817097156785D-01  1.5056756591988D+00
    38  3.7000000000000D-01 -6.2514860212211D-01  1.5138236335166D+00
    39  3.8000000000000D-01 -5.1711118894670D-01  1.5197897035770D+00
    40  3.9000000000000D-01 -4.0468626599538D-01  1.5235786488108D+00
    41  4.0000000000000D-01 -2.8855017806302D-01  1.5251987350473D+00
    42  4.1000000000000D-01 -1.6942383102639D-01  1.5246617936856D+00
    43  4.2000000000000D-01 -4.8067789624639D-02  1.5219833133065D+00
    44  4.3000000000000D-01  7.4723244108268D-02  1.5171825421877D+00
    45  4.4000000000000D-01  1.9812652902649D-01  1.5102825997918D+00
    46  4.5000000000000D-01  3.2129790762834D-01  1.5013105949263D+00
    47  4.6000000000000D-01  4.4337889248289D-01  1.4902977479268D+00
    48  4.7000000000000D-01  5.6350414715648D-01  1.4772795139042D+00
    49  4.8000000000000D-01  6.8080928492373D-01  1.4622957038195D+00
    50  4.9000000000000D-01  7.9443890185577D-01  1.4453905999220D+00
    51  5.0000000000000D-01  9.0355475515313D-01  1.4266130619062D+00
    52  5.1000000000000D-01  1.0073439929431D+00  1.4060166200144D+00
    53  5.2000000000000D-01  1.1050273382777D+00  1.3836595512490D+00
    54  5.3000000000000D-01  1.1958671278345D+00  1.3596049348482D+00
    55  5.4000000000000D-01  1.2791751048938D+00  1.3339206832394D+00
    56  5.5000000000000D-01  1.3543198665905D+00  1.3066795448055D+00
    57  5.6000000000000D-01  1.4207338672462D+00  1.2779590749892D+00
    58  5.7000000000000D-01  1.4779198827693D+00  1.2478415725133D+00
    59  5.8000000000000D-01  1.5254568456900D+00  1.2164139778111D+00
    60  5.9000000000000D-01  1.5630049662746D+00  1.1837677311405D+00
    61  6.0000000000000D-01  1.5903100623929D+00  1.1499985882892D+00
    62  6.1000000000000D-01  1.6072070291740D+00  1.1152063922662D+00
    63  6.2000000000000D-01  1.6136223890622D+00  1.0794947999121D+00
    64  6.3000000000000D-01  1.6095758734001D+00  1.0429709629336D+00
    65  6.4000000000000D-01  1.5951809981028D+00  1.0057451634801D+00
    66  6.5000000000000D-01  1.5706446082012D+00  9.6793040501697D-01
    67  6.6000000000000D-01  1.5362653787568D+00  9.2964195989943D-01
    68  6.7000000000000D-01  1.4924312728865D+00  8.9099687571724D-01
    69  6.8000000000000D-01  1.4396159710774D+00  8.5211344313892D-01
    70  6.9000000000000D-01  1.3783742994922D+00  8.1311062863522D-01
    71  7.0000000000000D-01  1.3093366983218D+00  7.7410747608959D-01
    72  7.1000000000000D-01  1.2332027843908D+00  7.3522248190579D-01
    73  7.2000000000000D-01  1.1507340747539D+00  6.9657294878011D-01
    74  7.3000000000000D-01  1.0627459499511D+00  6.5827432381735D-01
    75  7.4000000000000D-01  9.7009894661096D-01  6.2043952712163D-01
    76  7.5000000000000D-01  8.7368947910714D-01  5.8317827737977D-01
    77  7.6000000000000D-01  7.7444009880572D-01  5.4659642126788D-01
    78  7.7000000000000D-01  6.7328940691212D-01  5.1079527374323D-01
    79  7.8000000000000D-01  5.7118174296725D-01  4.7587097642999D-01
    80  7.9000000000000D-01  4.6905677550921D-01  4.4191388136258D-01
    81  8.0000000000000D-01  3.6783912423158D-01  4.0900796731178D-01
    82  8.1000000000000D-01  2.6842814407062D-01  3.7723029578352D-01
    83  8.2000000000000D-01  1.7168800099613D-01  3.4665051354855D-01
    84  8.3000000000000D-01  7.8438166852544D-02  3.1733040823212D-01
    85  8.4000000000000D-01 -1.0555543596704D-02  2.8932352306996D-01
    86  8.5000000000000D-01 -9.4589276189873D-02  2.6267483642198D-01
    87  8.6000000000000D-01 -1.7302867181227D-01  2.3742051103394D-01
    88  8.7000000000000D-01 -2.4531553130148D-01  2.1358771735539D-01
    89  8.8000000000000D-01 -3.1097352099906D-01  1.9119453446686D-01
    90  8.9000000000000D-01 -3.6961284113159D-01  1.7024993134890D-01
    91  9.0000000000000D-01 -4.2093379239228D-01  1.5075383034992D-01
    92  9.1000000000000D-01 -4.6472919030408D-01  1.3269725378910D-01
    93  9.2000000000000D-01 -5.0088559198734D-01  1.1606255367643D-01
    94  9.3000000000000D-01 -5.2938331562835D-01  1.0082372355629D-01
    95  9.4000000000000D-01 -5.5029524903487D-01  8.6946790496192D-02
    96  9.5000000000000D-01 -5.6378445994986D-01  7.4390284261685D-02
    97  9.6000000000000D-01 -5.7010063704710D-01  6.3105779754668D-02
    98  9.7000000000000D-01 -5.6957540652406D-01  5.3038507858725D-02
    99  9.8000000000000D-01 -5.6261658468876D-01  4.4128028945725D-02
   100  9.9000000000000D-01 -5.4970144184658D-01  3.6308962456390D-02
   101  1.0000000000000D+00 -5.3136906642160D-01  2.9511765212844D-02
   102  1.0100000000000D+00 -5.0821193116056D-01  2.3663550421599D-02
   103  1.0200000000000D+00 -4.8086677473625D-01  1.8688938723114D-02
   104  1.0300000000000D+00 -4.5000492184503D-01  1.4510932149354D-02
   105  1.0400000000000D+00 -4.1632217328069D-01  1.1051801448546D-02
   106  1.0500000000000D+00 -3.8052840401552D-01  8.2339769527029D-03
   107  1.0600000000000D+00 -3.4333701182280D-01  5.9809330021126D-03
   108  1.0700000000000D+00 -3.0545436195405D-01  4.2180558795525D-03
   109  1.0800000000000D+00 -2.6756937396142D-01  2.8734852960631D-03
   110  1.0900000000000D+00 -2.3034339555304D-01  1.8789196580894D-03
   111  1.1000000000000D+00 -1.9440050466549D-01  1.1703756995631D-03
   112  1.1100000000000D+00 -1.6031837649758D-01  6.8889343736917D-04
   113  1.1200000000000D+00 -1.2861984456413D-01  3.8117800653579D-04
   114  1.1300000000000D+00 -9.9765275961657D-02  2.0017057850327D-04
   115  1.1400000000000D+00 -7.4145869864220D-02  1.0554135990923D-04
   116  1.1500000000000D+00 -5.2077977365633D-02  6.4098429297826D-05
   117  1.1600000000000D+00 -3.3799935664839D-02  5.0125928778585D-05
   118  1.1700000000000D+00 -1.9467669939325D-02  4.5596441635727D-05
   119  1.1800000000000D+00 -9.0813488380032D-03  3.9342331386130D-05
   120  1.1900000000000D+00 -2.8968492201999D-03  3.2817742421739D-05
   121  1.2000000000000D+00 -4.6951866948325D-04  2.6362958105933D-05
   122  1.2100000000000D+00  2.4673055576752D-05  9.2310697376226D-06
   123  1.2200000000000D+00 -1.9961794143096D-05 -2.2178562374199D-06
   124  1.2300000000000D+00 -2.2296184801594D-06 -1.7361630436850D-07
   125  1.2400000000000D+00  2.8350860196565D-06  4.7705059461418D-07
   126  1.2500000000000D+00  8.2822224128662D-07 -6.2613109047076D-08
   127  1.2600000000000D+00  2.5302132507276D-08 -1.9128261749414D-09
   128  1.2700000000000D+00  0.0000000000000D+00  0.0000000000000D+00
   129  1.2800000000000D+00  0.0000000000000D+00  0.0000000000000D+00
   130  1.2900000000000D+00  0.0000000000000D+00  0.0000000000000D+00
   131  1.3000000000000D+00  0.0000000000000D+00  0.0000000000000D+00
   132  1.3100000000000D+00  0.0000000000000D+00  0.0000000000000D+00
   133  1.3200000000000D+00  0.0000000000000D+00  0.0000000000000D+00
   134  1.3300000000000D+00  0.0000000000000D+00  0.0000000000000D+00
   135  1.3400000000000D+00  0.0000000000000D+00  0.0000000000000D+00
   136  1.3500000000000D+00  0.0000000000000D+00  0.0000000000000D+00
   137  1.3600000000000D+00  0.0000000000000D+00  0.0000000000000D+00
   138  1.3700000000000D+00  0.0000000000000D+00  0.0000000000000D+00
   139  1.3800000000000D+00  0.0000000000000D+00  0.0000000000000D+00
   140  1.3900000000000D+00  0.0000000000000D+00  0.0000000000000D+00
   141  1.4000000000000D+00  0.0000000000000D+00  0.0000000000000D+00
   142  1.4100000000000D+00  0.0000000000000D+00  0.0000000000000D+00
   143  1.4200000000000D+00  0.0000000000000D+00  0.0000000000000D+00
   144  1.4300000000000D+00  0.0000000000000D+00  0.0000000000000D+00
   145  1.4400000000000D+00  0.0000000000000D+00  0.0000000000000D+00
   146  1.4500000000000D+00  0.0000000000000D+00  0.0000000000000D+00
   147  1.4600000000000D+00  0.0000000000000D+00  0.0000000000000D+00
   148  1.4700000000000D+00  0.0000000000000D+00  0.0000000000000D+00
   149  1.4800000000000D+00  0.0000000000000D+00  0.0000000000000D+00
   150  1.4900000000000D+00  0.0000000000000D+00  0.0000000000000D+00
   151  1.5000000000000D+00  0.0000000000000D+00  0.0000000000000D+00
   152  1.5100000000000D+00  0.0000000000000D+00  0.0000000000000D+00
   153  1.5200000000000D+00  0.0000000000000D+00  0.0000000000000D+00
   154  1.5300000000000D+00  0.0000000000000D+00  0.0000000000000D+00
   155  1.5400000000000D+00  0.0000000000000D+00  0.0000000000000D+00
   156  1.5500000000000D+00  0.0000000000000D+00  0.0000000000000D+00
   157  1.5600000000000D+00  0.0000000000000D+00  0.0000000000000D+00
   158  1.5700000000000D+00  0.0000000000000D+00  0.0000000000000D+00
   159  1.5800000000000D+00  0.0000000000000D+00  0.0000000000000D+00
   160  1.5900000000000D+00  0.0000000000000D+00  0.0000000000000D+00
   161  1.6000000000000D+00  0.0000000000000D+00  0.0000000000000D+00
   162  1.6100000000000D+00  0.0000000000000D+00  0.0000000000000D+00
   163  1.6200000000000D+00  0.0000000000000D+00  0.0000000000000D+00
   164  1.6300000000000D+00  0.0000000000000D+00  0.0000000000000D+00
   165  1.6400000000000D+00  0.0000000000000D+00  0.0000000000000D+00
   166  1.6500000000000D+00  0.0000000000000D+00  0.0000000000000D+00
   167  1.6600000000000D+00  0.0000000000000D+00  0.0000000000000D+00
   168  1.6700000000000D+00  0.0000000000000D+00  0.0000000000000D+00
   169  1.6800000000000D+00  0.0000000000000D+00  0.0000000000000D+00
   170  1.6900000000000D+00  0.0000000000000D+00  0.0000000000000D+00
   171  1.7000000000000D+00  0.0000000000000D+00  0.0000000000000D+00
   172  1.7100000000000D+00  0.0000000000000D+00  0.0000000000000D+00
   173  1.7200000000000D+00  0.0000000000000D+00  0.0000000000000D+00
   174  1.7300000000000D+00  0.0000000000000D+00  0.0000000000000D+00
   175  1.7400000000000D+00  0.0000000000000D+00  0.0000000000000D+00
   176  1.7500000000000D+00  0.0000000000000D+00  0.0000000000000D+00
   177  1.7600000000000D+00  0.0000000000000D+00  0.0000000000000D+00
   178  1.7700000000000D+00  0.0000000000000D+00  0.0000000000000D+00
   179  1.7800000000000D+00  0.0000000000000D+00  0.0000000000000D+00
   180  1.7900000000000D+00  0.0000000000000D+00  0.0000000000000D+00
   181  1.8000000000000D+00  0.0000000000000D+00  0.0000000000000D+00
   182  1.8100000000000D+00  0.0000000000000D+00  0.0000000000000D+00
   183  1.8200000000000D+00  0.0000000000000D+00  0.0000000000000D+00
   184  1.8300000000000D+00  0.0000000000000D+00  0.0000000000000D+00
   185  1.8400000000000D+00  0.0000000000000D+00  0.0000000000000D+00
   186  1.8500000000000D+00  0.0000000000000D+00  0.0000000000000D+00
   187  1.8600000000000D+00  0.0000000000000D+00  0.0000000000000D+00
   188  1.8700000000000D+00  0.0000000000000D+00  0.0000000000000D+00
   189  1.8800000000000D+00  0.0000000000000D+00  0.0000000000000D+00
   190  1.8900000000000D+00  0.0000000000000D+00  0.0000000000000D+00
   191  1.9000000000000D+00  0.0000000000000D+00  0.0000000000000D+00
   192  1.9100000000000D+00  0.0000000000000D+00  0.0000000000000D+00
   193  1.9200000000000D+00  0.0000000000000D+00  0.0000000000000D+00
   194  1.9300000000000D+00  0.0000000000000D+00  0.0000000000000D+00
   195  1.9400000000000D+00  0.0000000000000D+00  0.0000000000000D+00
   196  1.9500000000000D+00  0.0000000000000D+00  0.0000000000000D+00
   197  1.9600000000000D+00  0.0000000000000D+00  0.0000000000000D+00
   198  1.9700000000000D+00  0.0000000000000D+00  0.0000000000000D+00
   199  1.9800000000000D+00  0.0000000000000D+00  0.0000000000000D+00
   200  1.9900000000000D+00  0.0000000000000D+00  0.0000000000000D+00
   201  2.0000000000000D+00  0.0000000000000D+00  0.0000000000000D+00
   202  2.0100000000000D+00  0.0000000000000D+00  0.0000000000000D+00
   203  2.0200000000000D+00  0.0000000000000D+00  0.0000000000000D+00
   204  2.0300000000000D+00  0.0000000000000D+00  0.0000000000000D+00
   205  2.0400000000000D+00  0.0000000000000D+00  0.0000000000000D+00
   206  2.0500000000000D+00  0.0000000000000D+00  0.0000000000000D+00
   207  2.0600000000000D+00  0.0000000000000D+00  0.0000000000000D+00
   208  2.0700000000000D+00  0.0000000000000D+00  0.0000000000000D+00
   209  2.0800000000000D+00  0.0000000000000D+00  0.0000000000000D+00
   210  2.0900000000000D+00  0.0000000000000D+00  0.0000000000000D+00
   211  2.1000000000000D+00  0.0000000000000D+00  0.0000000000000D+00
   212  2.1100000000000D+00  0.0000000000000D+00  0.0000000000000D+00
   213  2.1200000000000D+00  0.0000000000000D+00  0.0000000000000D+00
   214  2.1300000000000D+00  0.0000000000000D+00  0.0000000000000D+00
   215  2.1400000000000D+00  0.0000000000000D+00  0.0000000000000D+00
   216  2.1500000000000D+00  0.0000000000000D+00  0.0000000000000D+00
   217  2.1600000000000D+00  0.0000000000000D+00  0.0000000000000D+00
   218  2.1700000000000D+00  0.0000000000000D+00  0.0000000000000D+00
   219  2.1800000000000D+00  0.0000000000000D+00  0.0000000000000D+00
   220  2.1900000000000D+00  0.0000000000000D+00  0.0000000000000D+00
   221  2.2000000000000D+00  0.0000000000000D+00  0.0000000000000D+00
   222  2.2100000000000D+00  0.0000000000000D+00  0.0000000000000D+00
   223  2.2200000000000D+00  0.0000000000000D+00  0.0000000000000D+00
   224  2.2300000000000D+00  0.0000000000000D+00  0.0000000000000D+00
   225  2.2400000000000D+00  0.0000000000000D+00  0.0000000000000D+00
   226  2.2500000000000D+00  0.0000000000000D+00  0.0000000000000D+00
   227  2.2600000000000D+00  0.0000000000000D+00  0.0000000000000D+00
   228  2.2700000000000D+00  0.0000000000000D+00  0.0000000000000D+00
   229  2.2800000000000D+00  0.0000000000000D+00  0.0000000000000D+00
   230  2.2900000000000D+00  0.0000000000000D+00  0.0000000000000D+00
   231  2.3000000000000D+00  0.0000000000000D+00  0.0000000000000D+00
   232  2.3100000000000D+00  0.0000000000000D+00  0.0000000000000D+00
   233  2.3200000000000D+00  0.0000000000000D+00  0.0000000000000D+00
   234  2.3300000000000D+00  0.0000000000000D+00  0.0000000000000D+00
   235  2.3400000000000D+00  0.0000000000000D+00  0.0000000000000D+00
   236  2.3500000000000D+00  0.0000000000000D+00  0.0000000000000D+00
   237  2.3600000000000D+00  0.0000000000000D+00  0.0000000000000D+00
   238  2.3700000000000D+00  0.0000000000000D+00  0.0000000000000D+00
   239  2.3800000000000D+00  0.0000000000000D+00  0.0000000000000D+00
   240  2.3900000000000D+00  0.0000000000000D+00  0.0000000000000D+00
   241  2.4000000000000D+00  0.0000000000000D+00  0.0000000000000D+00
   242  2.4100000000000D+00  0.0000000000000D+00  0.0000000000000D+00
   243  2.4200000000000D+00  0.0000000000000D+00  0.0000000000000D+00
   244  2.4300000000000D+00  0.0000000000000D+00  0.0000000000000D+00
   245  2.4400000000000D+00  0.0000000000000D+00  0.0000000000000D+00
   246  2.4500000000000D+00  0.0000000000000D+00  0.0000000000000D+00
   247  2.4600000000000D+00  0.0000000000000D+00  0.0000000000000D+00
   248  2.4700000000000D+00  0.0000000000000D+00  0.0000000000000D+00
   249  2.4800000000000D+00  0.0000000000000D+00  0.0000000000000D+00
   250  2.4900000000000D+00  0.0000000000000D+00  0.0000000000000D+00
   251  2.5000000000000D+00  0.0000000000000D+00  0.0000000000000D+00
   252  2.5100000000000D+00  0.0000000000000D+00  0.0000000000000D+00
   253  2.5200000000000D+00  0.0000000000000D+00  0.0000000000000D+00
   254  2.5300000000000D+00  0.0000000000000D+00  0.0000000000000D+00
   255  2.5400000000000D+00  0.0000000000000D+00  0.0000000000000D+00
   256  2.5500000000000D+00  0.0000000000000D+00  0.0000000000000D+00
   257  2.5600000000000D+00  0.0000000000000D+00  0.0000000000000D+00
   258  2.5700000000000D+00  0.0000000000000D+00  0.0000000000000D+00
   259  2.5800000000000D+00  0.0000000000000D+00  0.0000000000000D+00
   260  2.5900000000000D+00  0.0000000000000D+00  0.0000000000000D+00
   261  2.6000000000000D+00  0.0000000000000D+00  0.0000000000000D+00
   262  2.6100000000000D+00  0.0000000000000D+00  0.0000000000000D+00
   263  2.6200000000000D+00  0.0000000000000D+00  0.0000000000000D+00
   264  2.6300000000000D+00  0.0000000000000D+00  0.0000000000000D+00
   265  2.6400000000000D+00  0.0000000000000D+00  0.0000000000000D+00
   266  2.6500000000000D+00  0.0000000000000D+00  0.0000000000000D+00
   267  2.6600000000000D+00  0.0000000000000D+00  0.0000000000000D+00
   268  2.6700000000000D+00  0.0000000000000D+00  0.0000000000000D+00
   269  2.6800000000000D+00  0.0000000000000D+00  0.0000000000000D+00
   270  2.6900000000000D+00  0.0000000000000D+00  0.0000000000000D+00
   271  2.7000000000000D+00  0.0000000000000D+00  0.0000000000000D+00
   272  2.7100000000000D+00  0.0000000000000D+00  0.0000000000000D+00
   273  2.7200000000000D+00  0.0000000000000D+00  0.0000000000000D+00
   274  2.7300000000000D+00  0.0000000000000D+00  0.0000000000000D+00
   275  2.7400000000000D+00  0.0000000000000D+00  0.0000000000000D+00
   276  2.7500000000000D+00  0.0000000000000D+00  0.0000000000000D+00
   277  2.7600000000000D+00  0.0000000000000D+00  0.0000000000000D+00
   278  2.7700000000000D+00  0.0000000000000D+00  0.0000000000000D+00
   279  2.7800000000000D+00  0.0000000000000D+00  0.0000000000000D+00
   280  2.7900000000000D+00  0.0000000000000D+00  0.0000000000000D+00
   281  2.8000000000000D+00  0.0000000000000D+00  0.0000000000000D+00
   282  2.8100000000000D+00  0.0000000000000D+00  0.0000000000000D+00
   283  2.8200000000000D+00  0.0000000000000D+00  0.0000000000000D+00
   284  2.8300000000000D+00  0.0000000000000D+00  0.0000000000000D+00
   285  2.8400000000000D+00  0.0000000000000D+00  0.0000000000000D+00
   286  2.8500000000000D+00  0.0000000000000D+00  0.0000000000000D+00
   287  2.8600000000000D+00  0.0000000000000D+00  0.0000000000000D+00
   288  2.8700000000000D+00  0.0000000000000D+00  0.0000000000000D+00
   289  2.8800000000000D+00  0.0000000000000D+00  0.0000000000000D+00
   290  2.8900000000000D+00  0.0000000000000D+00  0.0000000000000D+00
   291  2.9000000000000D+00  0.0000000000000D+00  0.0000000000000D+00
   292  2.9100000000000D+00  0.0000000000000D+00  0.0000000000000D+00
   293  2.9200000000000D+00  0.0000000000000D+00  0.0000000000000D+00
   294  2.9300000000000D+00  0.0000000000000D+00  0.0000000000000D+00
   295  2.9400000000000D+00  0.0000000000000D+00  0.0000000000000D+00
   296  2.9500000000000D+00  0.0000000000000D+00  0.0000000000000D+00
   297  2.9600000000000D+00  0.0000000000000D+00  0.0000000000000D+00
   298  2.9700000000000D+00  0.0000000000000D+00  0.0000000000000D+00
   299  2.9800000000000D+00  0.0000000000000D+00  0.0000000000000D+00
   300  2.9900000000000D+00  0.0000000000000D+00  0.0000000000000D+00
   301  3.0000000000000D+00  0.0000000000000D+00  0.0000000000000D+00
   302  3.0100000000000D+00  0.0000000000000D+00  0.0000000000000D+00
   303  3.0200000000000D+00  0.0000000000000D+00  0.0000000000000D+00
   304  3.0300000000000D+00  0.0000000000000D+00  0.0000000000000D+00
   305  3.0400000000000D+00  0.0000000000000D+00  0.0000000000000D+00
   306  3.0500000000000D+00  0.0000000000000D+00  0.0000000000000D+00
   307  3.0600000000000D+00  0.0000000000000D+00  0.0000000000000D+00
   308  3.0700000000000D+00  0.0000000000000D+00  0.0000000000000D+00
   309  3.0800000000000D+00  0.0000000000000D+00  0.0000000000000D+00
   310  3.0900000000000D+00  0.0000000000000D+00  0.0000000000000D+00
   311  3.1000000000000D+00  0.0000000000000D+00  0.0000000000000D+00
   312  3.1100000000000D+00  0.0000000000000D+00  0.0000000000000D+00
   313  3.1200000000000D+00  0.0000000000000D+00  0.0000000000000D+00
   314  3.1300000000000D+00  0.0000000000000D+00  0.0000000000000D+00
   315  3.1400000000000D+00  0.0000000000000D+00  0.0000000000000D+00
   316  3.1500000000000D+00  0.0000000000000D+00  0.0000000000000D+00
   317  3.1600000000000D+00  0.0000000000000D+00  0.0000000000000D+00
   318  3.1700000000000D+00  0.0000000000000D+00  0.0000000000000D+00
   319  3.1800000000000D+00  0.0000000000000D+00  0.0000000000000D+00
   320  3.1900000000000D+00  0.0000000000000D+00  0.0000000000000D+00
   321  3.2000000000000D+00  0.0000000000000D+00  0.0000000000000D+00
   322  3.2100000000000D+00  0.0000000000000D+00  0.0000000000000D+00
   323  3.2200000000000D+00  0.0000000000000D+00  0.0000000000000D+00
   324  3.2300000000000D+00  0.0000000000000D+00  0.0000000000000D+00
   325  3.2400000000000D+00  0.0000000000000D+00  0.0000000000000D+00
   326  3.2500000000000D+00  0.0000000000000D+00  0.0000000000000D+00
   327  3.2600000000000D+00  0.0000000000000D+00  0.0000000000000D+00
   328  3.2700000000000D+00  0.0000000000000D+00  0.0000000000000D+00
   329  3.2800000000000D+00  0.0000000000000D+00  0.0000000000000D+00
   330  3.2900000000000D+00  0.0000000000000D+00  0.0000000000000D+00
   331  3.3000000000000D+00  0.0000000000000D+00  0.0000000000000D+00
   332  3.3100000000000D+00  0.0000000000000D+00  0.0000000000000D+00
   333  3.3200000000000D+00  0.0000000000000D+00  0.0000000000000D+00
   334  3.3300000000000D+00  0.0000000000000D+00  0.0000000000000D+00
   335  3.3400000000000D+00  0.0000000000000D+00  0.0000000000000D+00
   336  3.3500000000000D+00  0.0000000000000D+00  0.0000000000000D+00
   337  3.3600000000000D+00  0.0000000000000D+00  0.0000000000000D+00
   338  3.3700000000000D+00  0.0000000000000D+00  0.0000000000000D+00
   339  3.3800000000000D+00  0.0000000000000D+00  0.0000000000000D+00
   340  3.3900000000000D+00  0.0000000000000D+00  0.0000000000000D+00
   341  3.4000000000000D+00  0.0000000000000D+00  0.0000000000000D+00
   342  3.4100000000000D+00  0.0000000000000D+00  0.0000000000000D+00
   343  3.4200000000000D+00  0.0000000000000D+00  0.0000000000000D+00
   344  3.4300000000000D+00  0.0000000000000D+00  0.0000000000000D+00
   345  3.4400000000000D+00  0.0000000000000D+00  0.0000000000000D+00
   346  3.4500000000000D+00  0.0000000000000D+00  0.0000000000000D+00
   347  3.4600000000000D+00  0.0000000000000D+00  0.0000000000000D+00
   348  3.4700000000000D+00  0.0000000000000D+00  0.0000000000000D+00
   349  3.4800000000000D+00  0.0000000000000D+00  0.0000000000000D+00
   350  3.4900000000000D+00  0.0000000000000D+00  0.0000000000000D+00
   351  3.5000000000000D+00  0.0000000000000D+00  0.0000000000000D+00
   352  3.5100000000000D+00  0.0000000000000D+00  0.0000000000000D+00
   353  3.5200000000000D+00  0.0000000000000D+00  0.0000000000000D+00
   354  3.5300000000000D+00  0.0000000000000D+00  0.0000000000000D+00
   355  3.5400000000000D+00  0.0000000000000D+00  0.0000000000000D+00
   356  3.5500000000000D+00  0.0000000000000D+00  0.0000000000000D+00
   357  3.5600000000000D+00  0.0000000000000D+00  0.0000000000000D+00
   358  3.5700000000000D+00  0.0000000000000D+00  0.0000000000000D+00
   359  3.5800000000000D+00  0.0000000000000D+00  0.0000000000000D+00
   360  3.5900000000000D+00  0.0000000000000D+00  0.0000000000000D+00
   361  3.6000000000000D+00  0.0000000000000D+00  0.0000000000000D+00
   362  3.6100000000000D+00  0.0000000000000D+00  0.0000000000000D+00
   363  3.6200000000000D+00  0.0000000000000D+00  0.0000000000000D+00
   364  3.6300000000000D+00  0.0000000000000D+00  0.0000000000000D+00
   365  3.6400000000000D+00  0.0000000000000D+00  0.0000000000000D+00
   366  3.6500000000000D+00  0.0000000000000D+00  0.0000000000000D+00
   367  3.6600000000000D+00  0.0000000000000D+00  0.0000000000000D+00
   368  3.6700000000000D+00  0.0000000000000D+00  0.0000000000000D+00
   369  3.6800000000000D+00  0.0000000000000D+00  0.0000000000000D+00
   370  3.6900000000000D+00  0.0000000000000D+00  0.0000000000000D+00
   371  3.7000000000000D+00  0.0000000000000D+00  0.0000000000000D+00
   372  3.7100000000000D+00  0.0000000000000D+00  0.0000000000000D+00
   373  3.7200000000000D+00  0.0000000000000D+00  0.0000000000000D+00
   374  3.7300000000000D+00  0.0000000000000D+00  0.0000000000000D+00
   375  3.7400000000000D+00  0.0000000000000D+00  0.0000000000000D+00
   376  3.7500000000000D+00  0.0000000000000D+00  0.0000000000000D+00
   377  3.7600000000000D+00  0.0000000000000D+00  0.0000000000000D+00
   378  3.7700000000000D+00  0.0000000000000D+00  0.0000000000000D+00
   379  3.7800000000000D+00  0.0000000000000D+00  0.0000000000000D+00
   380  3.7900000000000D+00  0.0000000000000D+00  0.0000000000000D+00
   381  3.8000000000000D+00  0.0000000000000D+00  0.0000000000000D+00
   382  3.8100000000000D+00  0.0000000000000D+00  0.0000000000000D+00
   383  3.8200000000000D+00  0.0000000000000D+00  0.0000000000000D+00
   384  3.8300000000000D+00  0.0000000000000D+00  0.0000000000000D+00
   385  3.8400000000000D+00  0.0000000000000D+00  0.0000000000000D+00
   386  3.8500000000000D+00  0.0000000000000D+00  0.0000000000000D+00
   387  3.8600000000000D+00  0.0000000000000D+00  0.0000000000000D+00
   388  3.8700000000000D+00  0.0000000000000D+00  0.0000000000000D+00
   389  3.8800000000000D+00  0.0000000000000D+00  0.0000000000000D+00
   390  3.8900000000000D+00  0.0000000000000D+00  0.0000000000000D+00
   391  3.9000000000000D+00  0.0000000000000D+00  0.0000000000000D+00
   392  3.9100000000000D+00  0.0000000000000D+00  0.0000000000000D+00
   393  3.9200000000000D+00  0.0000000000000D+00  0.0000000000000D+00
   394  3.9300000000000D+00  0.0000000000000D+00  0.0000000000000D+00
   395  3.9400000000000D+00  0.0000000000000D+00  0.0000000000000D+00
   396  3.9500000000000D+00  0.0000000000000D+00  0.0000000000000D+00
   397  3.9600000000000D+00  0.0000000000000D+00  0.0000000000000D+00
   398  3.9700000000000D+00  0.0000000000000D+00  0.0000000000000D+00
   399  3.9800000000000D+00  0.0000000000000D+00  0.0000000000000D+00
   400  3.9900000000000D+00  0.0000000000000D+00  0.0000000000000D+00
   401  4.0000000000000D+00  0.0000000000000D+00  0.0000000000000D+00
   402  4.0100000000000D+00  0.0000000000000D+00  0.0000000000000D+00
   403  4.0200000000000D+00  0.0000000000000D+00  0.0000000000000D+00
   404  4.0300000000000D+00  0.0000000000000D+00  0.0000000000000D+00
   405  4.0400000000000D+00  0.0000000000000D+00  0.0000000000000D+00
   406  4.0500000000000D+00  0.0000000000000D+00  0.0000000000000D+00
   407  4.0600000000000D+00  0.0000000000000D+00  0.0000000000000D+00
   408  4.0700000000000D+00  0.0000000000000D+00  0.0000000000000D+00
   409  4.0800000000000D+00  0.0000000000000D+00  0.0000000000000D+00
   410  4.0900000000000D+00  0.0000000000000D+00  0.0000000000000D+00
   411  4.1000000000000D+00  0.0000000000000D+00  0.0000000000000D+00
   412  4.1100000000000D+00  0.0000000000000D+00  0.0000000000000D+00
   413  4.1200000000000D+00  0.0000000000000D+00  0.0000000000000D+00
   414  4.1300000000000D+00  0.0000000000000D+00  0.0000000000000D+00
   415  4.1400000000000D+00  0.0000000000000D+00  0.0000000000000D+00
   416  4.1500000000000D+00  0.0000000000000D+00  0.0000000000000D+00
   417  4.1600000000000D+00  0.0000000000000D+00  0.0000000000000D+00
   418  4.1700000000000D+00  0.0000000000000D+00  0.0000000000000D+00
   419  4.1800000000000D+00  0.0000000000000D+00  0.0000000000000D+00
   420  4.1900000000000D+00  0.0000000000000D+00  0.0000000000000D+00
   421  4.2000000000000D+00  0.0000000000000D+00  0.0000000000000D+00
   422  4.2100000000000D+00  0.0000000000000D+00  0.0000000000000D+00