Kr    ONCVPSP-3.3.0  r_core=   1.75984   1.50704   1.80233
     36.0000      8.0000      220117    zatom,zion,pspd
     8      11   2     4   600     0    pspcod,pspxc,lmax,lloc,mmax,r2well
  5.99000000  0.00000000  0.00000000    rchrg fchrg qchrg
     2     2     2     0     0    nproj
     1     1           extension_switch
   0                         8.3612944214923D+00  8.2127787726718D-01
     1  0.0000000000000D+00 -9.5146446277283D-11  4.0482880936388D-10
     2  1.0000000000000D-02  3.9502445139542D-02 -1.7017965498493D-02
     3  2.0000000000000D-02  7.8963149962596D-02 -3.3942982146591D-02
     4  3.0000000000000D-02  1.1834056499292D-01 -5.0682994819726D-02
     5  4.0000000000000D-02  1.5759352022619D-01 -6.7147725878966D-02
     6  5.0000000000000D-02  1.9668140936894D-01 -8.3249539102405D-02
     7  6.0000000000000D-02  2.3556436754903D-01 -9.8904274132209D-02
     8  7.0000000000000D-02  2.7420344043432D-01 -1.1403204208835D-01
     9  8.0000000000000D-02  3.1256074279101D-01 -1.2855797340494D-01
    10  9.0000000000000D-02  3.5059960463070D-01 -1.4241290944356D-01
    11  1.0000000000000D-01  3.8828470323266D-01 -1.5553403002572D-01
    12  1.1000000000000D-01  4.2558217948565D-01 -1.6786540969720D-01
    13  1.2000000000000D-01  4.6245973716883D-01 -1.7935849628494D-01
    14  1.3000000000000D-01  4.9888672398239D-01 -1.8997250612392D-01
    15  1.4000000000000D-01  5.3483419334478D-01 -1.9967473121057D-01
    16  1.5000000000000D-01  5.7027494619059D-01 -2.0844075447024D-01
    17  1.6000000000000D-01  6.0518355223119D-01 -2.1625457030240D-01
    18  1.7000000000000D-01  6.3953635037538D-01 -2.2310860857606D-01
    19  1.8000000000000D-01  6.7331142824806D-01 -2.2900366128257D-01
    20  1.9000000000000D-01  7.0648858098777D-01 -2.3394871210031D-01
    21  2.0000000000000D-01  7.3904924974814D-01 -2.3796067017757D-01
    22  2.1000000000000D-01  7.7097644056892D-01 -2.4106401048457D-01
    23  2.2000000000000D-01  8.0225462451926D-01 -2.4329032411270D-01
    24  2.3000000000000D-01  8.3286962024462D-01 -2.4467778289843D-01
    25  2.4000000000000D-01  8.6280846026866D-01 -2.4527052371113D-01
    26  2.5000000000000D-01  8.9205924260832D-01 -2.4511795865700D-01
    27  2.6000000000000D-01  9.2061096945366D-01 -2.4427401830831D-01
    28  2.7000000000000D-01  9.4845337484049D-01 -2.4279633585649D-01
    29  2.8000000000000D-01  9.7557674340169D-01 -2.4074538080298D-01
    30  2.9000000000000D-01  1.0019717224211D+00 -2.3818355143460D-01
    31  3.0000000000000D-01  1.0276291295292D+00 -2.3517423587315D-01
    32  3.1000000000000D-01  1.0525397584730D+00 -2.3178085193658D-01
    33  3.2000000000000D-01  1.0766941854589D+00 -2.2806587639566D-01
    34  3.3000000000000D-01  1.1000825786103D+00 -2.2408987445109D-01
    35  3.4000000000000D-01  1.1226945130974D+00 -2.1991054038846D-01
    36  3.5000000000000D-01  1.1445187944847D+00 -2.1558176038965D-01
    37  3.6000000000000D-01  1.1655432928038D+00 -2.1115270838817D-01
    38  3.7000000000000D-01  1.1857547897924D+00 -2.0666698565185D-01
    39  3.8000000000000D-01  1.2051388416504D+00 -2.0216181446096D-01
    40  3.9000000000000D-01  1.2236796595413D+00 -1.9766729582389D-01
    41  4.0000000000000D-01  1.2413600099273D+00 -1.9320574064074D-01
    42  4.1000000000000D-01  1.2581611366528D+00 -1.8879108308971D-01
    43  4.2000000000000D-01  1.2740627065049D+00 -1.8442838427892D-01
    44  4.3000000000000D-01  1.2890427797597D+00 -1.8011343338255D-01
    45  4.4000000000000D-01  1.3030778069962D+00 -1.7583245257202D-01
    46  4.5000000000000D-01  1.3161426532045D+00 -1.7156191106840D-01
    47  4.6000000000000D-01  1.3282106499509D+00 -1.6726845259130D-01
    48  4.7000000000000D-01  1.3392536760829D+00 -1.6290893936915D-01
    49  4.8000000000000D-01  1.3492422671668D+00 -1.5843061471984D-01
    50  4.9000000000000D-01  1.3581457535539D+00 -1.5377138501635D-01
    51  5.0000000000000D-01  1.3659324266677D+00 -1.4886022063382D-01
    52  5.1000000000000D-01  1.3725697328022D+00 -1.4361767424153D-01
    53  5.2000000000000D-01  1.3780244934148D+00 -1.3795651356997D-01
    54  5.3000000000000D-01  1.3822631505996D+00 -1.3178246455898D-01
    55  5.4000000000000D-01  1.3852520361352D+00 -1.2499505959295D-01
    56  5.5000000000000D-01  1.3869576622148D+00 -1.1748858436295D-01
    57  5.6000000000000D-01  1.3873470317010D+00 -1.0915311577633D-01
    58  5.7000000000000D-01  1.3863879654904D+00 -9.9875642275492D-02
    59  5.8000000000000D-01  1.3840494443378D+00 -8.9541256933342D-02
    60  5.9000000000000D-01  1.3803019622784D+00 -7.8034412786805D-02
    61  6.0000000000000D-01  1.3751178885895D+00 -6.5240229044928D-02
    62  6.1000000000000D-01  1.3684718350752D+00 -5.1045836091482D-02
    63  6.2000000000000D-01  1.3603410253139D+00 -3.5341746586075D-02
    64  6.3000000000000D-01  1.3507056624043D+00 -1.8023239472863D-02
    65  6.4000000000000D-01  1.3395492916679D+00  1.0082566704684D-03
    66  6.5000000000000D-01  1.3268591547215D+00  2.1843794758636D-02
    67  6.6000000000000D-01  1.3126265313238D+00  4.4565568731123D-02
    68  6.7000000000000D-01  1.2968470654209D+00  6.9245615405170D-02
    69  6.8000000000000D-01  1.2795210718751D+00  9.5944572409453D-02
    70  6.9000000000000D-01  1.2606538204540D+00  1.2471050566808D-01
    71  7.0000000000000D-01  1.2402557937800D+00  1.5557781948051D-01
    72  7.1000000000000D-01  1.2183429161030D+00  1.8856626168208D-01
    73  7.2000000000000D-01  1.1949367499492D+00  2.2368003568298D-01
    74  7.3000000000000D-01  1.1700646579227D+00  2.6090703036968D-01
    75  7.4000000000000D-01  1.1437599271885D+00  3.0021817792241D-01
    76  7.5000000000000D-01  1.1160618544478D+00  3.4156694855995D-01
    77  7.6000000000000D-01  1.0870157895178D+00  3.8488899007660D-01
    78  7.7000000000000D-01  1.0566731359629D+00  4.3010191880029D-01
    79  7.8000000000000D-01  1.0250913075665D+00  4.7710526728083D-01
    80  7.9000000000000D-01  9.9233363980262D-01  5.2578059262733D-01
    81  8.0000000000000D-01  9.5846925584467D-01  5.7599174796623D-01
    82  8.1000000000000D-01  9.2357288703911D-01  6.2758531799929D-01
    83  8.2000000000000D-01  8.8772464816929D-01  6.8039121811721D-01
    84  8.3000000000000D-01  8.5100976823580D-01  7.3422345498550D-01
    85  8.4000000000000D-01  8.1351827788000D-01  7.8888104497710D-01
    86  8.5000000000000D-01  7.7534465497454D-01  8.4414908529754D-01
    87  8.6000000000000D-01  7.3658743029312D-01  8.9979997114744D-01
    88  8.7000000000000D-01  6.9734875554968D-01  9.5559475080822D-01
    89  8.8000000000000D-01  6.5773393645916D-01  1.0112846091355D+00
    90  8.9000000000000D-01  6.1785093381596D-01  1.0666124686138D+00
    91  9.0000000000000D-01  5.7780983590741D-01  1.1213146958801D+00
    92  9.1000000000000D-01  5.3772230587574D-01  1.1751229004764D+00
    93  9.2000000000000D-01  4.9770100790977D-01  1.2277658115520D+00
    94  9.3000000000000D-01  4.5785901638355D-01  1.2789712173186D+00
    95  9.4000000000000D-01  4.1830921226191D-01  1.3284679512775D+00
    96  9.5000000000000D-01  3.7916367125904D-01  1.3759879085866D+00
    97  9.6000000000000D-01  3.4053304836458D-01  1.4212680754432D+00
    98  9.7000000000000D-01  3.0252596344021D-01  1.4640525540090D+00
    99  9.8000000000000D-01  2.6524839263784D-01  1.5040945652194D+00
   100  9.9000000000000D-01  2.2880307039540D-01  1.5411584118023D+00
   101  1.0000000000000D+00  1.9328890673064D-01  1.5750213839662D+00
   102  1.0100000000000D+00  1.5880042447624D-01  1.6054755905234D+00
   103  1.0200000000000D+00  1.2542722097591D-01  1.6323296986922D+00
   104  1.0300000000000D+00  9.3253458601720D-02  1.6554105664449D+00
   105  1.0400000000000D+00  6.2357388251520D-02  1.6745647520524D+00
   106  1.0500000000000D+00  3.2810909738512D-02  1.6896598864380D+00
   107  1.0600000000000D+00  4.6791727170287D-03  1.7005858949944D+00
   108  1.0700000000000D+00 -2.1979778522529D-02  1.7072560567307D+00
   109  1.0800000000000D+00 -4.7115313413200D-02  1.7096078900006D+00
   110  1.0900000000000D+00 -7.0684474003028D-02  1.7076038554422D+00
   111  1.1000000000000D+00 -9.2652182183790D-02  1.7012318684155D+00
   112  1.1100000000000D+00 -1.1299139342987D-01  1.6905056146574D+00
   113  1.1200000000000D+00 -1.3168319570604D-01  1.6754646647540D+00
   114  1.1300000000000D+00 -1.4871685263641D-01  1.6561743847111D+00
   115  1.1400000000000D+00 -1.6408979050779D-01  1.6327256417658D+00
   116  1.1500000000000D+00 -1.7780752910430D-01  1.6052343062185D+00
   117  1.1600000000000D+00 -1.8988355686770D-01  1.5738405519869D+00
   118  1.1700000000000D+00 -2.0033915136280D-01  1.5387079604510D+00
   119  1.1800000000000D+00 -2.0920314649938D-01  1.5000224339734D+00
   120  1.1900000000000D+00 -2.1651164829260D-01  1.4579909267473D+00
   121  1.2000000000000D+00 -2.2230770153295D-01  1.4128400028807D+00
   122  1.2100000000000D+00 -2.2664091008249D-01  1.3648142329427D+00
   123  1.2200000000000D+00 -2.2956701388666D-01  1.3141744416067D+00
   124  1.2300000000000D+00 -2.3114742612293D-01  1.2611958202921D+00
   125  1.2400000000000D+00 -2.3144873436032D-01  1.2061659204011D+00
   126  1.2500000000000D+00 -2.3054216980732D-01  1.1493825434938D+00
   127  1.2600000000000D+00 -2.2850304891456D-01  1.0911515454593D+00
   128  1.2700000000000D+00 -2.2541019201776D-01  1.0317845732663D+00
   129  1.2800000000000D+00 -2.2134532372035D-01  9.7159675287348D-01
   130  1.2900000000000D+00 -2.1639245985966D-01  9.1090434744344D-01
   131  1.3000000000000D+00 -2.1063728611408D-01  8.5002240566618D-01
   132  1.3100000000000D+00 -2.0416653317708D-01  7.8926241945022D-01
   133  1.3200000000000D+00 -1.9706735358839D-01  7.2893001087267D-01
   134  1.3300000000000D+00 -1.8942670515214D-01  6.6932266743703D-01
   135  1.3400000000000D+00 -1.8133074575301D-01  6.1072754423285D-01
   136  1.3500000000000D+00 -1.7286424447973D-01  5.5341935192090D-01
   137  1.3600000000000D+00 -1.6411001335916D-01  4.9765834686600D-01
   138  1.3700000000000D+00 -1.5514836419877D-01  4.4368844058950D-01
   139  1.3800000000000D+00 -1.4605659467165D-01  3.9173544411267D-01
   140  1.3900000000000D+00 -1.3690850695737D-01  3.4200545938312D-01
   141  1.4000000000000D+00 -1.2777396309898D-01  2.9468343346431D-01
   142  1.4100000000000D+00 -1.1871847942231D-01  2.4993188364666D-01
   143  1.4200000000000D+00 -1.0980286300531D-01  2.0788980432699D-01
   144  1.4300000000000D+00 -1.0108289274000D-01  1.6867176461630D-01
   145  1.4400000000000D+00 -9.2609045865849D-02  1.3236719888126D-01
   146  1.4500000000000D+00 -8.4426272715281D-02  9.9039899986526D-02
   147  1.4600000000000D+00 -7.6573818494262D-02  6.8727707692041D-02
   148  1.4700000000000D+00 -6.9085098151111D-02  4.1442424594485D-02
   149  1.4800000000000D+00 -6.1987605254429D-02  1.7169845906477D-02
   150  1.4900000000000D+00 -5.5302917105423D-02 -4.1297355025318D-03
   151  1.5000000000000D+00 -4.9046659814433D-02 -2.2521330281454D-02
   152  1.5100000000000D+00 -4.3228527049322D-02 -3.8094861097671D-02
   153  1.5200000000000D+00 -3.7852714222720D-02 -5.0962313087038D-02
   154  1.5300000000000D+00 -3.2918350892272D-02 -6.1255084228596D-02
   155  1.5400000000000D+00 -2.8420097591725D-02 -6.9120642667862D-02
   156  1.5500000000000D+00 -2.4348615535827D-02 -7.4720035372689D-02
   157  1.5600000000000D+00 -2.0690844879427D-02 -7.8226695330419D-02
   158  1.5700000000000D+00 -1.7430419374916D-02 -7.9824460840250D-02
   159  1.5800000000000D+00 -1.4548090921876D-02 -7.9705583764792D-02
   160  1.5900000000000D+00 -1.2022166306343D-02 -7.8068718575756D-02
   161  1.6000000000000D+00 -9.8289587853732D-03 -7.5116856592314D-02
   162  1.6100000000000D+00 -7.9432474960797D-03 -7.1055241807711D-02
   163  1.6200000000000D+00 -6.3387409011102D-03 -6.6089281093759D-02
   164  1.6300000000000D+00 -4.9885391081677D-03 -6.0422470627011D-02
   165  1.6400000000000D+00 -3.8655908284332D-03 -5.4254355765100D-02
   166  1.6500000000000D+00 -2.9431394442311D-03 -4.7778547033792D-02
   167  1.6600000000000D+00 -2.1951548924123D-03 -4.1180805600181D-02
   168  1.6700000000000D+00 -1.5967453832811D-03 -3.4637222707892D-02
   169  1.6800000000000D+00 -1.1245467300548D-03 -2.8312502085821D-02
   170  1.6900000000000D+00 -7.5708302449138D-04 -2.2358370942896D-02
   171  1.7000000000000D+00 -4.7505179050972D-04 -1.6913714165719D-02
   172  1.7100000000000D+00 -2.6168834808483D-04 -1.2100873029152D-02
   173  1.7200000000000D+00 -1.0384092073832D-04 -8.0044457792780D-03
   174  1.7300000000000D+00  9.1764626042074D-06 -4.7123609600154D-03
   175  1.7400000000000D+00  9.1488477189293D-05 -2.3946218848732D-03
   176  1.7500000000000D+00  1.4904590523560D-04 -1.0918231017652D-03
   177  1.7600000000000D+00  1.5340250635389D-04 -4.7036101283427D-04
   178  1.7700000000000D+00  8.4689050525408D-05 -1.4931520002980D-04
   179  1.7800000000000D+00  5.9821640166100D-06 -7.4997606279659D-06
   180  1.7900000000000D+00 -1.7485086431474D-05  1.7801944258228D-05
   181  1.8000000000000D+00 -4.6954400956039D-06  3.8559347397578D-06
   182  1.8100000000000D+00  3.6819952332675D-06 -5.2698251622687D-06
   183  1.8200000000000D+00  1.9192659098486D-06 -2.5720689923292D-06
   184  1.8300000000000D+00 -3.5679496714175D-07  1.1062105113574D-06
   185  1.8400000000000D+00 -3.0948921273101D-07  9.5954330022471D-07
   186  1.8500000000000D+00  0.0000000000000D+00  0.0000000000000D+00
   187  1.8600000000000D+00  0.0000000000000D+00  0.0000000000000D+00
   188  1.8700000000000D+00  0.0000000000000D+00  0.0000000000000D+00
   189  1.8800000000000D+00  0.0000000000000D+00  0.0000000000000D+00
   190  1.8900000000000D+00  0.0000000000000D+00  0.0000000000000D+00
   191  1.9000000000000D+00  0.0000000000000D+00  0.0000000000000D+00
   192  1.9100000000000D+00  0.0000000000000D+00  0.0000000000000D+00
   193  1.9200000000000D+00  0.0000000000000D+00  0.0000000000000D+00
   194  1.9300000000000D+00  0.0000000000000D+00  0.0000000000000D+00
   195  1.9400000000000D+00  0.0000000000000D+00  0.0000000000000D+00
   196  1.9500000000000D+00  0.0000000000000D+00  0.0000000000000D+00
   197  1.9600000000000D+00  0.0000000000000D+00  0.0000000000000D+00
   198  1.9700000000000D+00  0.0000000000000D+00  0.0000000000000D+00
   199  1.9800000000000D+00  0.0000000000000D+00  0.0000000000000D+00
   200  1.9900000000000D+00  0.0000000000000D+00  0.0000000000000D+00
   201  2.0000000000000D+00  0.0000000000000D+00  0.0000000000000D+00
   202  2.0100000000000D+00  0.0000000000000D+00  0.0000000000000D+00
   203  2.0200000000000D+00  0.0000000000000D+00  0.0000000000000D+00
   204  2.0300000000000D+00  0.0000000000000D+00  0.0000000000000D+00
   205  2.0400000000000D+00  0.0000000000000D+00  0.0000000000000D+00
   206  2.0500000000000D+00  0.0000000000000D+00  0.0000000000000D+00
   207  2.0600000000000D+00  0.0000000000000D+00  0.0000000000000D+00
   208  2.0700000000000D+00  0.0000000000000D+00  0.0000000000000D+00
   209  2.0800000000000D+00  0.0000000000000D+00  0.0000000000000D+00
   210  2.0900000000000D+00  0.0000000000000D+00  0.0000000000000D+00
   211  2.1000000000000D+00  0.0000000000000D+00  0.0000000000000D+00
   212  2.1100000000000D+00  0.0000000000000D+00  0.0000000000000D+00
   213  2.1200000000000D+00  0.0000000000000D+00  0.0000000000000D+00
   214  2.1300000000000D+00  0.0000000000000D+00  0.0000000000000D+00
   215  2.1400000000000D+00  0.0000000000000D+00  0.0000000000000D+00
   216  2.1500000000000D+00  0.0000000000000D+00  0.0000000000000D+00
   217  2.1600000000000D+00  0.0000000000000D+00  0.0000000000000D+00
   218  2.1700000000000D+00  0.0000000000000D+00  0.0000000000000D+00
   219  2.1800000000000D+00  0.0000000000000D+00  0.0000000000000D+00
   220  2.1900000000000D+00  0.0000000000000D+00  0.0000000000000D+00
   221  2.2000000000000D+00  0.0000000000000D+00  0.0000000000000D+00
   222  2.2100000000000D+00  0.0000000000000D+00  0.0000000000000D+00
   223  2.2200000000000D+00  0.0000000000000D+00  0.0000000000000D+00
   224  2.2300000000000D+00  0.0000000000000D+00  0.0000000000000D+00
   225  2.2400000000000D+00  0.0000000000000D+00  0.0000000000000D+00
   226  2.2500000000000D+00  0.0000000000000D+00  0.0000000000000D+00
   227  2.2600000000000D+00  0.0000000000000D+00  0.0000000000000D+00
   228  2.2700000000000D+00  0.0000000000000D+00  0.0000000000000D+00
   229  2.2800000000000D+00  0.0000000000000D+00  0.0000000000000D+00
   230  2.2900000000000D+00  0.0000000000000D+00  0.0000000000000D+00
   231  2.3000000000000D+00  0.0000000000000D+00  0.0000000000000D+00
   232  2.3100000000000D+00  0.0000000000000D+00  0.0000000000000D+00
   233  2.3200000000000D+00  0.0000000000000D+00  0.0000000000000D+00
   234  2.3300000000000D+00  0.0000000000000D+00  0.0000000000000D+00
   235  2.3400000000000D+00  0.0000000000000D+00  0.0000000000000D+00
   236  2.3500000000000D+00  0.0000000000000D+00  0.0000000000000D+00
   237  2.3600000000000D+00  0.0000000000000D+00  0.0000000000000D+00
   238  2.3700000000000D+00  0.0000000000000D+00  0.0000000000000D+00
   239  2.3800000000000D+00  0.0000000000000D+00  0.0000000000000D+00
   240  2.3900000000000D+00  0.0000000000000D+00  0.0000000000000D+00
   241  2.4000000000000D+00  0.0000000000000D+00  0.0000000000000D+00
   242  2.4100000000000D+00  0.0000000000000D+00  0.0000000000000D+00
   243  2.4200000000000D+00  0.0000000000000D+00  0.0000000000000D+00
   244  2.4300000000000D+00  0.0000000000000D+00  0.0000000000000D+00
   245  2.4400000000000D+00  0.0000000000000D+00  0.0000000000000D+00
   246  2.4500000000000D+00  0.0000000000000D+00  0.0000000000000D+00
   247  2.4600000000000D+00  0.0000000000000D+00  0.0000000000000D+00
   248  2.4700000000000D+00  0.0000000000000D+00  0.0000000000000D+00
   249  2.4800000000000D+00  0.0000000000000D+00  0.0000000000000D+00
   250  2.4900000000000D+00  0.0000000000000D+00  0.0000000000000D+00
   251  2.5000000000000D+00  0.0000000000000D+00  0.0000000000000D+00
   252  2.5100000000000D+00  0.0000000000000D+00  0.0000000000000D+00
   253  2.5200000000000D+00  0.0000000000000D+00  0.0000000000000D+00
   254  2.5300000000000D+00  0.0000000000000D+00  0.0000000000000D+00
   255  2.5400000000000D+00  0.0000000000000D+00  0.0000000000000D+00
   256  2.5500000000000D+00  0.0000000000000D+00  0.0000000000000D+00
   257  2.5600000000000D+00  0.0000000000000D+00  0.0000000000000D+00
   258  2.5700000000000D+00  0.0000000000000D+00  0.0000000000000D+00
   259  2.5800000000000D+00  0.0000000000000D+00  0.0000000000000D+00
   260  2.5900000000000D+00  0.0000000000000D+00  0.0000000000000D+00
   261  2.6000000000000D+00  0.0000000000000D+00  0.0000000000000D+00
   262  2.6100000000000D+00  0.0000000000000D+00  0.0000000000000D+00
   263  2.6200000000000D+00  0.0000000000000D+00  0.0000000000000D+00
   264  2.6300000000000D+00  0.0000000000000D+00  0.0000000000000D+00
   265  2.6400000000000D+00  0.0000000000000D+00  0.0000000000000D+00
   266  2.6500000000000D+00  0.0000000000000D+00  0.0000000000000D+00
   267  2.6600000000000D+00  0.0000000000000D+00  0.0000000000000D+00
   268  2.6700000000000D+00  0.0000000000000D+00  0.0000000000000D+00
   269  2.6800000000000D+00  0.0000000000000D+00  0.0000000000000D+00
   270  2.6900000000000D+00  0.0000000000000D+00  0.0000000000000D+00
   271  2.7000000000000D+00  0.0000000000000D+00  0.0000000000000D+00
   272  2.7100000000000D+00  0.0000000000000D+00  0.0000000000000D+00
   273  2.7200000000000D+00  0.0000000000000D+00  0.0000000000000D+00
   274  2.7300000000000D+00  0.0000000000000D+00  0.0000000000000D+00
   275  2.7400000000000D+00  0.0000000000000D+00  0.0000000000000D+00
   276  2.7500000000000D+00  0.0000000000000D+00  0.0000000000000D+00
   277  2.7600000000000D+00  0.0000000000000D+00  0.0000000000000D+00
   278  2.7700000000000D+00  0.0000000000000D+00  0.0000000000000D+00
   279  2.7800000000000D+00  0.0000000000000D+00  0.0000000000000D+00
   280  2.7900000000000D+00  0.0000000000000D+00  0.0000000000000D+00
   281  2.8000000000000D+00  0.0000000000000D+00  0.0000000000000D+00
   282  2.8100000000000D+00  0.0000000000000D+00  0.0000000000000D+00
   283  2.8200000000000D+00  0.0000000000000D+00  0.0000000000000D+00
   284  2.8300000000000D+00  0.0000000000000D+00  0.0000000000000D+00
   285  2.8400000000000D+00  0.0000000000000D+00  0.0000000000000D+00
   286  2.8500000000000D+00  0.0000000000000D+00  0.0000000000000D+00
   287  2.8600000000000D+00  0.0000000000000D+00  0.0000000000000D+00
   288  2.8700000000000D+00  0.0000000000000D+00  0.0000000000000D+00
   289  2.8800000000000D+00  0.0000000000000D+00  0.0000000000000D+00
   290  2.8900000000000D+00  0.0000000000000D+00  0.0000000000000D+00
   291  2.9000000000000D+00  0.0000000000000D+00  0.0000000000000D+00
   292  2.9100000000000D+00  0.0000000000000D+00  0.0000000000000D+00
   293  2.9200000000000D+00  0.0000000000000D+00  0.0000000000000D+00
   294  2.9300000000000D+00  0.0000000000000D+00  0.0000000000000D+00
   295  2.9400000000000D+00  0.0000000000000D+00  0.0000000000000D+00
   296  2.9500000000000D+00  0.0000000000000D+00  0.0000000000000D+00
   297  2.9600000000000D+00  0.0000000000000D+00  0.0000000000000D+00
   298  2.9700000000000D+00  0.0000000000000D+00  0.0000000000000D+00
   299  2.9800000000000D+00  0.0000000000000D+00  0.0000000000000D+00
   300  2.9900000000000D+00  0.0000000000000D+00  0.0000000000000D+00
   301  3.0000000000000D+00  0.0000000000000D+00  0.0000000000000D+00
   302  3.0100000000000D+00  0.0000000000000D+00  0.0000000000000D+00
   303  3.0200000000000D+00  0.0000000000000D+00  0.0000000000000D+00
   304  3.0300000000000D+00  0.0000000000000D+00  0.0000000000000D+00
   305  3.0400000000000D+00  0.0000000000000D+00  0.0000000000000D+00
   306  3.0500000000000D+00  0.0000000000000D+00  0.0000000000000D+00
   307  3.0600000000000D+00  0.0000000000000D+00  0.0000000000000D+00
   308  3.0700000000000D+00  0.0000000000000D+00  0.0000000000000D+00
   309  3.0800000000000D+00  0.0000000000000D+00  0.0000000000000D+00
   310  3.0900000000000D+00  0.0000000000000D+00  0.0000000000000D+00
   311  3.1000000000000D+00  0.0000000000000D+00  0.0000000000000D+00
   312  3.1100000000000D+00  0.0000000000000D+00  0.0000000000000D+00
   313  3.1200000000000D+00  0.0000000000000D+00  0.0000000000000D+00
   314  3.1300000000000D+00  0.0000000000000D+00  0.0000000000000D+00
   315  3.1400000000000D+00  0.0000000000000D+00  0.0000000000000D+00
   316  3.1500000000000D+00  0.0000000000000D+00  0.0000000000000D+00
   317  3.1600000000000D+00  0.0000000000000D+00  0.0000000000000D+00
   318  3.1700000000000D+00  0.0000000000000D+00  0.0000000000000D+00
   319  3.1800000000000D+00  0.0000000000000D+00  0.0000000000000D+00
   320  3.1900000000000D+00  0.0000000000000D+00  0.0000000000000D+00
   321  3.2000000000000D+00  0.0000000000000D+00  0.0000000000000D+00
   322  3.2100000000000D+00  0.0000000000000D+00  0.0000000000000D+00
   323  3.2200000000000D+00  0.0000000000000D+00  0.0000000000000D+00
   324  3.2300000000000D+00  0.0000000000000D+00  0.0000000000000D+00
   325  3.2400000000000D+00  0.0000000000000D+00  0.0000000000000D+00
   326  3.2500000000000D+00  0.0000000000000D+00  0.0000000000000D+00
   327  3.2600000000000D+00  0.0000000000000D+00  0.0000000000000D+00
   328  3.2700000000000D+00  0.0000000000000D+00  0.0000000000000D+00
   329  3.2800000000000D+00  0.0000000000000D+00  0.0000000000000D+00
   330  3.2900000000000D+00  0.0000000000000D+00  0.0000000000000D+00
   331  3.3000000000000D+00  0.0000000000000D+00  0.0000000000000D+00
   332  3.3100000000000D+00  0.0000000000000D+00  0.0000000000000D+00
   333  3.3200000000000D+00  0.0000000000000D+00  0.0000000000000D+00
   334  3.3300000000000D+00  0.0000000000000D+00  0.0000000000000D+00
   335  3.3400000000000D+00  0.0000000000000D+00  0.0000000000000D+00
   336  3.3500000000000D+00  0.0000000000000D+00  0.0000000000000D+00
   337  3.3600000000000D+00  0.0000000000000D+00  0.0000000000000D+00
   338  3.3700000000000D+00  0.0000000000000D+00  0.0000000000000D+00
   339  3.3800000000000D+00  0.0000000000000D+00  0.0000000000000D+00
   340  3.3900000000000D+00  0.0000000000000D+00  0.0000000000000D+00
   341  3.4000000000000D+00  0.0000000000000D+00  0.0000000000000D+00
   342  3.4100000000000D+00  0.0000000000000D+00  0.0000000000000D+00
   343  3.4200000000000D+00  0.0000000000000D+00  0.0000000000000D+00
   344  3.4300000000000D+00  0.0000000000000D+00  0.0000000000000D+00
   345  3.4400000000000D+00  0.0000000000000D+00  0.0000000000000D+00
   346  3.4500000000000D+00  0.0000000000000D+00  0.0000000000000D+00
   347  3.4600000000000D+00  0.0000000000000D+00  0.0000000000000D+00
   348  3.4700000000000D+00  0.0000000000000D+00  0.0000000000000D+00
   349  3.4800000000000D+00  0.0000000000000D+00  0.0000000000000D+00
   350  3.4900000000000D+00  0.0000000000000D+00  0.0000000000000D+00
   351  3.5000000000000D+00  0.0000000000000D+00  0.0000000000000D+00
   352  3.5100000000000D+00  0.0000000000000D+00  0.0000000000000D+00
   353  3.5200000000000D+00  0.0000000000000D+00  0.0000000000000D+00
   354  3.5300000000000D+00  0.0000000000000D+00  0.0000000000000D+00
   355  3.5400000000000D+00  0.0000000000000D+00  0.0000000000000D+00
   356  3.5500000000000D+00  0.0000000000000D+00  0.0000000000000D+00
   357  3.5600000000000D+00  0.0000000000000D+00  0.0000000000000D+00
   358  3.5700000000000D+00  0.0000000000000D+00  0.0000000000000D+00
   359  3.5800000000000D+00  0.0000000000000D+00  0.0000000000000D+00
   360  3.5900000000000D+00  0.0000000000000D+00  0.0000000000000D+00
   361  3.6000000000000D+00  0.0000000000000D+00  0.0000000000000D+00
   362  3.6100000000000D+00  0.0000000000000D+00  0.0000000000000D+00
   363  3.6200000000000D+00  0.0000000000000D+00  0.0000000000000D+00
   364  3.6300000000000D+00  0.0000000000000D+00  0.0000000000000D+00
   365  3.6400000000000D+00  0.0000000000000D+00  0.0000000000000D+00
   366  3.6500000000000D+00  0.0000000000000D+00  0.0000000000000D+00
   367  3.6600000000000D+00  0.0000000000000D+00  0.0000000000000D+00
   368  3.6700000000000D+00  0.0000000000000D+00  0.0000000000000D+00
   369  3.6800000000000D+00  0.0000000000000D+00  0.0000000000000D+00
   370  3.6900000000000D+00  0.0000000000000D+00  0.0000000000000D+00
   371  3.7000000000000D+00  0.0000000000000D+00  0.0000000000000D+00
   372  3.7100000000000D+00  0.0000000000000D+00  0.0000000000000D+00
   373  3.7200000000000D+00  0.0000000000000D+00  0.0000000000000D+00
   374  3.7300000000000D+00  0.0000000000000D+00  0.0000000000000D+00
   375  3.7400000000000D+00  0.0000000000000D+00  0.0000000000000D+00
   376  3.7500000000000D+00  0.0000000000000D+00  0.0000000000000D+00
   377  3.7600000000000D+00  0.0000000000000D+00  0.0000000000000D+00
   378  3.7700000000000D+00  0.0000000000000D+00  0.0000000000000D+00
   379  3.7800000000000D+00  0.0000000000000D+00  0.0000000000000D+00
   380  3.7900000000000D+00  0.0000000000000D+00  0.0000000000000D+00
   381  3.8000000000000D+00  0.0000000000000D+00  0.0000000000000D+00
   382  3.8100000000000D+00  0.0000000000000D+00  0.0000000000000D+00
   383  3.8200000000000D+00  0.0000000000000D+00  0.0000000000000D+00
   384  3.8300000000000D+00  0.0000000000000D+00  0.0000000000000D+00
   385  3.8400000000000D+00  0.0000000000000D+00  0.0000000000000D+00
   386  3.8500000000000D+00  0.0000000000000D+00  0.0000000000000D+00
   387  3.8600000000000D+00  0.0000000000000D+00  0.0000000000000D+00
   388  3.8700000000000D+00  0.0000000000000D+00  0.0000000000000D+00
   389  3.8800000000000D+00  0.0000000000000D+00  0.0000000000000D+00
   390  3.8900000000000D+00  0.0000000000000D+00  0.0000000000000D+00
   391  3.9000000000000D+00  0.0000000000000D+00  0.0000000000000D+00
   392  3.9100000000000D+00  0.0000000000000D+00  0.0000000000000D+00
   393  3.9200000000000D+00  0.0000000000000D+00  0.0000000000000D+00
   394  3.9300000000000D+00  0.0000000000000D+00  0.0000000000000D+00
   395  3.9400000000000D+00  0.0000000000000D+00  0.0000000000000D+00
   396  3.9500000000000D+00  0.0000000000000D+00  0.0000000000000D+00
   397  3.9600000000000D+00  0.0000000000000D+00  0.0000000000000D+00
   398  3.9700000000000D+00  0.0000000000000D+00  0.0000000000000D+00
   399  3.9800000000000D+00  0.0000000000000D+00  0.0000000000000D+00
   400  3.9900000000000D+00  0.0000000000000D+00  0.0000000000000D+00
   401  4.0000000000000D+00  0.0000000000000D+00  0.0000000000000D+00
   402  4.0100000000000D+00  0.0000000000000D+00  0.0000000000000D+00
   403  4.0200000000000D+00  0.0000000000000D+00  0.0000000000000D+00
   404  4.0300000000000D+00  0.0000000000000D+00  0.0000000000000D+00
   405  4.0400000000000D+00  0.0000000000000D+00  0.0000000000000D+00
   406  4.0500000000000D+00  0.0000000000000D+00  0.0000000000000D+00
   407  4.0600000000000D+00  0.0000000000000D+00  0.0000000000000D+00
   408  4.0700000000000D+00  0.0000000000000D+00  0.0000000000000D+00
   409  4.0800000000000D+00  0.0000000000000D+00  0.0000000000000D+00
   410  4.0900000000000D+00  0.0000000000000D+00  0.0000000000000D+00
   411  4.1000000000000D+00  0.0000000000000D+00  0.0000000000000D+00
   412  4.1100000000000D+00  0.0000000000000D+00  0.0000000000000D+00
   413  4.1200000000000D+00  0.0000000000000D+00  0.0000000000000D+00
   414  4.1300000000000D+00  0.0000000000000D+00  0.0000000000000D+00
   415  4.1400000000000D+00  0.0000000000000D+00  0.0000000000000D+00
   416  4.1500000000000D+00  0.0000000000000D+00  0.0000000000000D+00
   417  4.1600000000000D+00  0.0000000000000D+00  0.0000000000000D+00
   418  4.1700000000000D+00  0.0000000000000D+00  0.0000000000000D+00
   419  4.1800000000000D+00  0.0000000000000D+00  0.0000000000000D+00
   420  4.1900000000000D+00  0.0000000000000D+00  0.0000000000000D+00
   421  4.2000000000000D+00  0.0000000000000D+00  0.0000000000000D+00
   422  4.2100000000000D+00  0.0000000000000D+00  0.0000000000000D+00