B     ONCVPSP-3.3.0  r_core=   1.20849   1.20849
      5.0000      3.0000      220117    zatom,zion,pspd
     8      11   1     4   600     0    pspcod,pspxc,lmax,lloc,mmax,r2well
  5.99000000  0.00000000  0.00000000    rchrg fchrg qchrg
     2     2     0     0     0    nproj
     1     1           extension_switch
   0                         8.3821041878056D+00  1.2342008301202D+00
     1  0.0000000000000D+00  2.3539911464532D-08 -4.0365662354325D-08
     2  1.0000000000000D-02  4.7797443428211D-02  1.3418356956673D-02
     3  2.0000000000000D-02  9.6045441931409D-02  2.5950634192416D-02
     4  3.0000000000000D-02  1.4518121484332D-01  3.6733708012377D-02
     5  4.0000000000000D-02  1.9561560515544D-01  4.4949861506300D-02
     6  5.0000000000000D-02  2.4772062299624D-01  4.9848235405083D-02
     7  6.0000000000000D-02  3.0181784985784D-01  5.0764805448000D-02
     8  7.0000000000000D-02  3.5816796214426D-01  4.7140443699712D-02
     9  8.0000000000000D-02  4.1696160907590D-01  3.8536661621835D-02
    10  9.0000000000000D-02  4.7831185148250D-01  2.4648681575447D-02
    11  1.0000000000000D-01  5.4224833514028D-01  5.3155397986873D-03
    12  1.1000000000000D-01  6.0871333573566D-01 -1.9473013396654D-02
    13  1.2000000000000D-01  6.7755977302269D-01 -4.9572982730951D-02
    14  1.3000000000000D-01  7.4855125010034D-01 -8.4686061518258D-02
    15  1.4000000000000D-01  8.2136413082957D-01 -1.2436305131314D-01
    16  1.5000000000000D-01  8.9559162512678D-01 -1.6801071511867D-01
    17  1.6000000000000D-01  9.7074980910616D-01 -2.1490193838629D-01
    18  1.7000000000000D-01  1.0462854656869D+00 -2.6418900122638D-01
    19  1.8000000000000D-01  1.1215855921912D+00 -3.1491969834432D-01
    20  1.9000000000000D-01  1.1959883854509D+00 -3.6605598161973D-01
    21  2.0000000000000D-01  1.2687954827682D+00 -4.1649474524686D-01
    22  2.1000000000000D-01  1.3392852094112D+00 -4.6509032611008D-01
    23  2.2000000000000D-01  1.4067265607594D+00 -5.1067825358100D-01
    24  2.3000000000000D-01  1.4703936302199D+00 -5.5209975401481D-01
    25  2.4000000000000D-01  1.5295801829846D+00 -5.8822649652189D-01
    26  2.5000000000000D-01  1.5836140708404D+00 -6.1798505851335D-01
    27  2.6000000000000D-01  1.6318711846902D+00 -6.4038059227013D-01
    28  2.7000000000000D-01  1.6737886491906D+00 -6.5451918734036D-01
    29  2.8000000000000D-01  1.7088769778197D+00 -6.5962844768968D-01
    30  2.9000000000000D-01  1.7367309264926D+00 -6.5507583674991D-01
    31  3.0000000000000D-01  1.7570388091502D+00 -6.4038438716503D-01
    32  3.1000000000000D-01  1.7695900690669D+00 -6.1524542425376D-01
    33  3.2000000000000D-01  1.7742809343388D+00 -5.7952801195040D-01
    34  3.3000000000000D-01  1.7711180244373D+00 -5.3328489604865D-01
    35  3.4000000000000D-01  1.7602198160620D+00 -4.7675479061970D-01
    36  3.5000000000000D-01  1.7418159199700D+00 -4.1036092806687D-01
    37  3.6000000000000D-01  1.7162441651022D+00 -3.3470586988778D-01
    38  3.7000000000000D-01  1.6839455312747D+00 -2.5056265228425D-01
    39  3.8000000000000D-01  1.6454570160191D+00 -1.5886241669537D-01
    40  3.9000000000000D-01  1.6014025639414D+00 -6.0678748579935D-02
    41  4.0000000000000D-01  1.5524822273342D+00  4.2790983186287D-02
    42  4.1000000000000D-01  1.4994597638894D+00  1.5024693053658D-01
    43  4.2000000000000D-01  1.4431489104437D+00  2.6031030186530D-01
    44  4.3000000000000D-01  1.3843986000575D+00  3.7154866863395D-01
    45  4.4000000000000D-01  1.3240774127684D+00  4.8250254336127D-01
    46  4.5000000000000D-01  1.2630575675989D+00  5.9171270035138D-01
    47  4.6000000000000D-01  1.2021987744374D+00  6.9774769210206D-01
    48  4.7000000000000D-01  1.1423322690161D+00  7.9923100700809D-01
    49  4.8000000000000D-01  1.0842453522438D+00  8.9486731794177D-01
    50  4.9000000000000D-01  1.0286667466460D+00  9.8346728651117D-01
    51  5.0000000000000D-01  9.7625306774126D-01  1.0639704140246D+00
    52  5.1000000000000D-01  9.2757668713900D-01  1.1354654669262D+00
    53  5.2000000000000D-01  8.8311523735910D-01  1.1972080510461D+00
    54  5.3000000000000D-01  8.4324297641506D-01  1.2486349644335D+00
    55  5.4000000000000D-01  8.0822419361460D-01  1.2893750218889D+00
    56  5.5000000000000D-01  7.7820879762171D-01  1.3192561141648D+00
    57  5.6000000000000D-01  7.5323018440092D-01  1.3383083397797D+00
    58  5.7000000000000D-01  7.3320543692036D-01  1.3467631262819D+00
    59  5.8000000000000D-01  7.1793786174176D-01  1.3450483383435D+00
    60  5.9000000000000D-01  7.0712182020149D-01  1.3337794516859D+00
    61  6.0000000000000D-01  7.0034976554822D-01  1.3137469515073D+00
    62  6.1000000000000D-01  6.9712135217525D-01  1.2859001917524D+00
    63  6.2000000000000D-01  6.9685444082760D-01  1.2513280240405D+00
    64  6.3000000000000D-01  6.9889778443005D-01  1.2112365722482D+00
    65  6.4000000000000D-01  7.0254514432545D-01  1.1669245883153D+00
    66  6.5000000000000D-01  7.0705055678907D-01  1.1197568758430D+00
    67  6.6000000000000D-01  7.1164444513511D-01  1.0711363097294D+00
    68  6.7000000000000D-01  7.1555025443830D-01  1.0224750109351D+00
    69  6.8000000000000D-01  7.1800127395136D-01  9.7516525532931D-01
    70  6.9000000000000D-01  7.1825730708048D-01  9.3055070379541D-01
    71  7.0000000000000D-01  7.1562085047267D-01  8.8989853708360D-01
    72  7.1000000000000D-01  7.0945245231260D-01  8.5437306337055D-01
    73  7.2000000000000D-01  6.9918493504812D-01  8.2501133963178D-01
    74  7.3000000000000D-01  6.8433618954736D-01  8.0270130959356D-01
    75  7.4000000000000D-01  6.6452027526438D-01  7.8816291274129D-01
    76  7.5000000000000D-01  6.3945659416071D-01  7.8193256095212D-01
    77  7.6000000000000D-01  6.0897694408230D-01  7.8435131321271D-01
    78  7.7000000000000D-01  5.7303029941998D-01  7.9555700562729D-01
    79  7.8000000000000D-01  5.3168521194853D-01  8.1548051566720D-01
    80  7.9000000000000D-01  4.8512977267227D-01  8.4384625648241D-01
    81  8.0000000000000D-01  4.3366912429634D-01  8.8017691257100D-01
    82  8.1000000000000D-01  3.7772056344760D-01  9.2380234242872D-01
    83  8.2000000000000D-01  3.1780632057751D-01  9.7387248941900D-01
    84  8.3000000000000D-01  2.5454415271821D-01  1.0293740605235D+00
    85  8.4000000000000D-01  1.8863592895782D-01  1.0891506555354D+00
    86  8.5000000000000D-01  1.2085442974214D-01  1.1519259582135D+00
    87  8.6000000000000D-01  5.2028618051487D-02  1.2163295373829D+00
    88  8.7000000000000D-01 -1.6972327616049D-02  1.2809247512554D+00
    89  8.8000000000000D-01 -8.5255902360711D-02  1.3442382034856D+00
    90  8.9000000000000D-01 -1.5192375010607D-01  1.4047901656176D+00
    91  9.0000000000000D-01 -2.1608937573459D-01  1.4611253583336D+00
    92  9.1000000000000D-01 -2.7689573870404D-01  1.5118434737767D+00
    93  9.2000000000000D-01 -3.3353237360815D-01  1.5556288234396D+00
    94  9.3000000000000D-01 -3.8525169116663D-01  1.5912785106798D+00
    95  9.4000000000000D-01 -4.3138412809677D-01  1.6177285535221D+00
    96  9.5000000000000D-01 -4.7135183624475D-01  1.6340774220477D+00
    97  9.6000000000000D-01 -5.0468062902696D-01  1.6396065032438D+00
    98  9.7000000000000D-01 -5.3100993714594D-01  1.6337970655473D+00
    99  9.8000000000000D-01 -5.5010056454628D-01  1.6163433634584D+00
   100  9.9000000000000D-01 -5.6184007847291D-01  1.5871615974448D+00
   101  1.0000000000000D+00 -5.6624571422863D-01  1.5463945258085D+00
   102  1.0100000000000D+00 -5.6346472428133D-01  1.4944116106093D+00
   103  1.0200000000000D+00 -5.5377215225461D-01  1.4318046682760D+00
   104  1.0300000000000D+00 -5.3756606382589D-01  1.3593790850691D+00
   105  1.0400000000000D+00 -5.1536031535281D-01  1.2781407423645D+00
   106  1.0500000000000D+00 -4.8777499355893D-01  1.1892788879236D+00
   107  1.0600000000000D+00 -4.5552470363249D-01  1.0941452657268D+00
   108  1.0700000000000D+00 -4.1940492725109D-01  9.9422989355148D-01
   109  1.0800000000000D+00 -3.8027671212020D-01  8.9113394693505D-01
   110  1.0900000000000D+00 -3.3904998457232D-01  7.8654026005863D-01
   111  1.1000000000000D+00 -2.9666581035217D-01  6.8218201217700D-01
   112  1.1100000000000D+00 -2.5407794624662D-01  5.7981019847456D-01
   113  1.1200000000000D+00 -2.1223404139380D-01  4.8116051206064D-01
   114  1.1300000000000D+00 -1.7205685400736D-01  3.8792027556919D-01
   115  1.1400000000000D+00 -1.3442585169539D-01  3.0169606479334D-01
   116  1.1500000000000D+00 -1.0015955504363D-01  2.2398265171215D-01
   117  1.1600000000000D+00 -6.9998968291291D-02  1.5613386646798D-01
   118  1.1700000000000D+00 -4.4601708849137D-02  9.9357090200929D-02
   119  1.1800000000000D+00 -2.4482147794346D-02  5.4583922423903D-02
   120  1.1900000000000D+00 -1.0025499210010D-02  2.2506593641893D-02
   121  1.2000000000000D+00 -1.9326636656390D-03  4.6179161251835D-03
   122  1.2100000000000D+00  6.5180035325228D-04 -1.1511927037517D-03
   123  1.2200000000000D+00  2.4230036453065D-04 -4.7659982151761D-04
   124  1.2300000000000D+00 -1.5607089413756D-04  3.1180239479169D-04
   125  1.2400000000000D+00  1.6788803530279D-05 -3.2919477535641D-05
   126  1.2500000000000D+00  1.4591408526610D-05 -2.8794887174014D-05
   127  1.2600000000000D+00 -1.5096197029437D-06  2.4439951010829D-06
   128  1.2700000000000D+00  0.0000000000000D+00  0.0000000000000D+00
   129  1.2800000000000D+00  0.0000000000000D+00  0.0000000000000D+00
   130  1.2900000000000D+00  0.0000000000000D+00  0.0000000000000D+00
   131  1.3000000000000D+00  0.0000000000000D+00  0.0000000000000D+00
   132  1.3100000000000D+00  0.0000000000000D+00  0.0000000000000D+00
   133  1.3200000000000D+00  0.0000000000000D+00  0.0000000000000D+00
   134  1.3300000000000D+00  0.0000000000000D+00  0.0000000000000D+00
   135  1.3400000000000D+00  0.0000000000000D+00  0.0000000000000D+00
   136  1.3500000000000D+00  0.0000000000000D+00  0.0000000000000D+00
   137  1.3600000000000D+00  0.0000000000000D+00  0.0000000000000D+00
   138  1.3700000000000D+00  0.0000000000000D+00  0.0000000000000D+00
   139  1.3800000000000D+00  0.0000000000000D+00  0.0000000000000D+00
   140  1.3900000000000D+00  0.0000000000000D+00  0.0000000000000D+00
   141  1.4000000000000D+00  0.0000000000000D+00  0.0000000000000D+00
   142  1.4100000000000D+00  0.0000000000000D+00  0.0000000000000D+00
   143  1.4200000000000D+00  0.0000000000000D+00  0.0000000000000D+00
   144  1.4300000000000D+00  0.0000000000000D+00  0.0000000000000D+00
   145  1.4400000000000D+00  0.0000000000000D+00  0.0000000000000D+00
   146  1.4500000000000D+00  0.0000000000000D+00  0.0000000000000D+00
   147  1.4600000000000D+00  0.0000000000000D+00  0.0000000000000D+00
   148  1.4700000000000D+00  0.0000000000000D+00  0.0000000000000D+00
   149  1.4800000000000D+00  0.0000000000000D+00  0.0000000000000D+00
   150  1.4900000000000D+00  0.0000000000000D+00  0.0000000000000D+00
   151  1.5000000000000D+00  0.0000000000000D+00  0.0000000000000D+00
   152  1.5100000000000D+00  0.0000000000000D+00  0.0000000000000D+00
   153  1.5200000000000D+00  0.0000000000000D+00  0.0000000000000D+00
   154  1.5300000000000D+00  0.0000000000000D+00  0.0000000000000D+00
   155  1.5400000000000D+00  0.0000000000000D+00  0.0000000000000D+00
   156  1.5500000000000D+00  0.0000000000000D+00  0.0000000000000D+00
   157  1.5600000000000D+00  0.0000000000000D+00  0.0000000000000D+00
   158  1.5700000000000D+00  0.0000000000000D+00  0.0000000000000D+00
   159  1.5800000000000D+00  0.0000000000000D+00  0.0000000000000D+00
   160  1.5900000000000D+00  0.0000000000000D+00  0.0000000000000D+00
   161  1.6000000000000D+00  0.0000000000000D+00  0.0000000000000D+00
   162  1.6100000000000D+00  0.0000000000000D+00  0.0000000000000D+00
   163  1.6200000000000D+00  0.0000000000000D+00  0.0000000000000D+00
   164  1.6300000000000D+00  0.0000000000000D+00  0.0000000000000D+00
   165  1.6400000000000D+00  0.0000000000000D+00  0.0000000000000D+00
   166  1.6500000000000D+00  0.0000000000000D+00  0.0000000000000D+00
   167  1.6600000000000D+00  0.0000000000000D+00  0.0000000000000D+00
   168  1.6700000000000D+00  0.0000000000000D+00  0.0000000000000D+00
   169  1.6800000000000D+00  0.0000000000000D+00  0.0000000000000D+00
   170  1.6900000000000D+00  0.0000000000000D+00  0.0000000000000D+00
   171  1.7000000000000D+00  0.0000000000000D+00  0.0000000000000D+00
   172  1.7100000000000D+00  0.0000000000000D+00  0.0000000000000D+00
   173  1.7200000000000D+00  0.0000000000000D+00  0.0000000000000D+00
   174  1.7300000000000D+00  0.0000000000000D+00  0.0000000000000D+00
   175  1.7400000000000D+00  0.0000000000000D+00  0.0000000000000D+00
   176  1.7500000000000D+00  0.0000000000000D+00  0.0000000000000D+00
   177  1.7600000000000D+00  0.0000000000000D+00  0.0000000000000D+00
   178  1.7700000000000D+00  0.0000000000000D+00  0.0000000000000D+00
   179  1.7800000000000D+00  0.0000000000000D+00  0.0000000000000D+00
   180  1.7900000000000D+00  0.0000000000000D+00  0.0000000000000D+00
   181  1.8000000000000D+00  0.0000000000000D+00  0.0000000000000D+00
   182  1.8100000000000D+00  0.0000000000000D+00  0.0000000000000D+00
   183  1.8200000000000D+00  0.0000000000000D+00  0.0000000000000D+00
   184  1.8300000000000D+00  0.0000000000000D+00  0.0000000000000D+00
   185  1.8400000000000D+00  0.0000000000000D+00  0.0000000000000D+00
   186  1.8500000000000D+00  0.0000000000000D+00  0.0000000000000D+00
   187  1.8600000000000D+00  0.0000000000000D+00  0.0000000000000D+00
   188  1.8700000000000D+00  0.0000000000000D+00  0.0000000000000D+00
   189  1.8800000000000D+00  0.0000000000000D+00  0.0000000000000D+00
   190  1.8900000000000D+00  0.0000000000000D+00  0.0000000000000D+00
   191  1.9000000000000D+00  0.0000000000000D+00  0.0000000000000D+00
   192  1.9100000000000D+00  0.0000000000000D+00  0.0000000000000D+00
   193  1.9200000000000D+00  0.0000000000000D+00  0.0000000000000D+00
   194  1.9300000000000D+00  0.0000000000000D+00  0.0000000000000D+00
   195  1.9400000000000D+00  0.0000000000000D+00  0.0000000000000D+00
   196  1.9500000000000D+00  0.0000000000000D+00  0.0000000000000D+00
   197  1.9600000000000D+00  0.0000000000000D+00  0.0000000000000D+00
   198  1.9700000000000D+00  0.0000000000000D+00  0.0000000000000D+00
   199  1.9800000000000D+00  0.0000000000000D+00  0.0000000000000D+00
   200  1.9900000000000D+00  0.0000000000000D+00  0.0000000000000D+00
   201  2.0000000000000D+00  0.0000000000000D+00  0.0000000000000D+00
   202  2.0100000000000D+00  0.0000000000000D+00  0.0000000000000D+00
   203  2.0200000000000D+00  0.0000000000000D+00  0.0000000000000D+00
   204  2.0300000000000D+00  0.0000000000000D+00  0.0000000000000D+00
   205  2.0400000000000D+00  0.0000000000000D+00  0.0000000000000D+00
   206  2.0500000000000D+00  0.0000000000000D+00  0.0000000000000D+00
   207  2.0600000000000D+00  0.0000000000000D+00  0.0000000000000D+00
   208  2.0700000000000D+00  0.0000000000000D+00  0.0000000000000D+00
   209  2.0800000000000D+00  0.0000000000000D+00  0.0000000000000D+00
   210  2.0900000000000D+00  0.0000000000000D+00  0.0000000000000D+00
   211  2.1000000000000D+00  0.0000000000000D+00  0.0000000000000D+00
   212  2.1100000000000D+00  0.0000000000000D+00  0.0000000000000D+00
   213  2.1200000000000D+00  0.0000000000000D+00  0.0000000000000D+00
   214  2.1300000000000D+00  0.0000000000000D+00  0.0000000000000D+00
   215  2.1400000000000D+00  0.0000000000000D+00  0.0000000000000D+00
   216  2.1500000000000D+00  0.0000000000000D+00  0.0000000000000D+00
   217  2.1600000000000D+00  0.0000000000000D+00  0.0000000000000D+00
   218  2.1700000000000D+00  0.0000000000000D+00  0.0000000000000D+00
   219  2.1800000000000D+00  0.0000000000000D+00  0.0000000000000D+00
   220  2.1900000000000D+00  0.0000000000000D+00  0.0000000000000D+00
   221  2.2000000000000D+00  0.0000000000000D+00  0.0000000000000D+00
   222  2.2100000000000D+00  0.0000000000000D+00  0.0000000000000D+00
   223  2.2200000000000D+00  0.0000000000000D+00  0.0000000000000D+00
   224  2.2300000000000D+00  0.0000000000000D+00  0.0000000000000D+00
   225  2.2400000000000D+00  0.0000000000000D+00  0.0000000000000D+00
   226  2.2500000000000D+00  0.0000000000000D+00  0.0000000000000D+00
   227  2.2600000000000D+00  0.0000000000000D+00  0.0000000000000D+00
   228  2.2700000000000D+00  0.0000000000000D+00  0.0000000000000D+00
   229  2.2800000000000D+00  0.0000000000000D+00  0.0000000000000D+00
   230  2.2900000000000D+00  0.0000000000000D+00  0.0000000000000D+00
   231  2.3000000000000D+00  0.0000000000000D+00  0.0000000000000D+00
   232  2.3100000000000D+00  0.0000000000000D+00  0.0000000000000D+00
   233  2.3200000000000D+00  0.0000000000000D+00  0.0000000000000D+00
   234  2.3300000000000D+00  0.0000000000000D+00  0.0000000000000D+00
   235  2.3400000000000D+00  0.0000000000000D+00  0.0000000000000D+00
   236  2.3500000000000D+00  0.0000000000000D+00  0.0000000000000D+00
   237  2.3600000000000D+00  0.0000000000000D+00  0.0000000000000D+00
   238  2.3700000000000D+00  0.0000000000000D+00  0.0000000000000D+00
   239  2.3800000000000D+00  0.0000000000000D+00  0.0000000000000D+00
   240  2.3900000000000D+00  0.0000000000000D+00  0.0000000000000D+00
   241  2.4000000000000D+00  0.0000000000000D+00  0.0000000000000D+00
   242  2.4100000000000D+00  0.0000000000000D+00  0.0000000000000D+00
   243  2.4200000000000D+00  0.0000000000000D+00  0.0000000000000D+00
   244  2.4300000000000D+00  0.0000000000000D+00  0.0000000000000D+00
   245  2.4400000000000D+00  0.0000000000000D+00  0.0000000000000D+00
   246  2.4500000000000D+00  0.0000000000000D+00  0.0000000000000D+00
   247  2.4600000000000D+00  0.0000000000000D+00  0.0000000000000D+00
   248  2.4700000000000D+00  0.0000000000000D+00  0.0000000000000D+00
   249  2.4800000000000D+00  0.0000000000000D+00  0.0000000000000D+00
   250  2.4900000000000D+00  0.0000000000000D+00  0.0000000000000D+00
   251  2.5000000000000D+00  0.0000000000000D+00  0.0000000000000D+00
   252  2.5100000000000D+00  0.0000000000000D+00  0.0000000000000D+00
   253  2.5200000000000D+00  0.0000000000000D+00  0.0000000000000D+00
   254  2.5300000000000D+00  0.0000000000000D+00  0.0000000000000D+00
   255  2.5400000000000D+00  0.0000000000000D+00  0.0000000000000D+00
   256  2.5500000000000D+00  0.0000000000000D+00  0.0000000000000D+00
   257  2.5600000000000D+00  0.0000000000000D+00  0.0000000000000D+00
   258  2.5700000000000D+00  0.0000000000000D+00  0.0000000000000D+00
   259  2.5800000000000D+00  0.0000000000000D+00  0.0000000000000D+00
   260  2.5900000000000D+00  0.0000000000000D+00  0.0000000000000D+00
   261  2.6000000000000D+00  0.0000000000000D+00  0.0000000000000D+00
   262  2.6100000000000D+00  0.0000000000000D+00  0.0000000000000D+00
   263  2.6200000000000D+00  0.0000000000000D+00  0.0000000000000D+00
   264  2.6300000000000D+00  0.0000000000000D+00  0.0000000000000D+00
   265  2.6400000000000D+00  0.0000000000000D+00  0.0000000000000D+00
   266  2.6500000000000D+00  0.0000000000000D+00  0.0000000000000D+00
   267  2.6600000000000D+00  0.0000000000000D+00  0.0000000000000D+00
   268  2.6700000000000D+00  0.0000000000000D+00  0.0000000000000D+00
   269  2.6800000000000D+00  0.0000000000000D+00  0.0000000000000D+00
   270  2.6900000000000D+00  0.0000000000000D+00  0.0000000000000D+00
   271  2.7000000000000D+00  0.0000000000000D+00  0.0000000000000D+00
   272  2.7100000000000D+00  0.0000000000000D+00  0.0000000000000D+00
   273  2.7200000000000D+00  0.0000000000000D+00  0.0000000000000D+00
   274  2.7300000000000D+00  0.0000000000000D+00  0.0000000000000D+00
   275  2.7400000000000D+00  0.0000000000000D+00  0.0000000000000D+00
   276  2.7500000000000D+00  0.0000000000000D+00  0.0000000000000D+00
   277  2.7600000000000D+00  0.0000000000000D+00  0.0000000000000D+00
   278  2.7700000000000D+00  0.0000000000000D+00  0.0000000000000D+00
   279  2.7800000000000D+00  0.0000000000000D+00  0.0000000000000D+00
   280  2.7900000000000D+00  0.0000000000000D+00  0.0000000000000D+00
   281  2.8000000000000D+00  0.0000000000000D+00  0.0000000000000D+00
   282  2.8100000000000D+00  0.0000000000000D+00  0.0000000000000D+00
   283  2.8200000000000D+00  0.0000000000000D+00  0.0000000000000D+00
   284  2.8300000000000D+00  0.0000000000000D+00  0.0000000000000D+00
   285  2.8400000000000D+00  0.0000000000000D+00  0.0000000000000D+00
   286  2.8500000000000D+00  0.0000000000000D+00  0.0000000000000D+00
   287  2.8600000000000D+00  0.0000000000000D+00  0.0000000000000D+00
   288  2.8700000000000D+00  0.0000000000000D+00  0.0000000000000D+00
   289  2.8800000000000D+00  0.0000000000000D+00  0.0000000000000D+00
   290  2.8900000000000D+00  0.0000000000000D+00  0.0000000000000D+00
   291  2.9000000000000D+00  0.0000000000000D+00  0.0000000000000D+00
   292  2.9100000000000D+00  0.0000000000000D+00  0.0000000000000D+00
   293  2.9200000000000D+00  0.0000000000000D+00  0.0000000000000D+00
   294  2.9300000000000D+00  0.0000000000000D+00  0.0000000000000D+00
   295  2.9400000000000D+00  0.0000000000000D+00  0.0000000000000D+00
   296  2.9500000000000D+00  0.0000000000000D+00  0.0000000000000D+00
   297  2.9600000000000D+00  0.0000000000000D+00  0.0000000000000D+00
   298  2.9700000000000D+00  0.0000000000000D+00  0.0000000000000D+00
   299  2.9800000000000D+00  0.0000000000000D+00  0.0000000000000D+00
   300  2.9900000000000D+00  0.0000000000000D+00  0.0000000000000D+00
   301  3.0000000000000D+00  0.0000000000000D+00  0.0000000000000D+00
   302  3.0100000000000D+00  0.0000000000000D+00  0.0000000000000D+00
   303  3.0200000000000D+00  0.0000000000000D+00  0.0000000000000D+00
   304  3.0300000000000D+00  0.0000000000000D+00  0.0000000000000D+00
   305  3.0400000000000D+00  0.0000000000000D+00  0.0000000000000D+00
   306  3.0500000000000D+00  0.0000000000000D+00  0.0000000000000D+00
   307  3.0600000000000D+00  0.0000000000000D+00  0.0000000000000D+00
   308  3.0700000000000D+00  0.0000000000000D+00  0.0000000000000D+00
   309  3.0800000000000D+00  0.0000000000000D+00  0.0000000000000D+00
   310  3.0900000000000D+00  0.0000000000000D+00  0.0000000000000D+00
   311  3.1000000000000D+00  0.0000000000000D+00  0.0000000000000D+00
   312  3.1100000000000D+00  0.0000000000000D+00  0.0000000000000D+00
   313  3.1200000000000D+00  0.0000000000000D+00  0.0000000000000D+00
   314  3.1300000000000D+00  0.0000000000000D+00  0.0000000000000D+00
   315  3.1400000000000D+00  0.0000000000000D+00  0.0000000000000D+00
   316  3.1500000000000D+00  0.0000000000000D+00  0.0000000000000D+00
   317  3.1600000000000D+00  0.0000000000000D+00  0.0000000000000D+00
   318  3.1700000000000D+00  0.0000000000000D+00  0.0000000000000D+00
   319  3.1800000000000D+00  0.0000000000000D+00  0.0000000000000D+00
   320  3.1900000000000D+00  0.0000000000000D+00  0.0000000000000D+00
   321  3.2000000000000D+00  0.0000000000000D+00  0.0000000000000D+00
   322  3.2100000000000D+00  0.0000000000000D+00  0.0000000000000D+00
   323  3.2200000000000D+00  0.0000000000000D+00  0.0000000000000D+00
   324  3.2300000000000D+00  0.0000000000000D+00  0.0000000000000D+00
   325  3.2400000000000D+00  0.0000000000000D+00  0.0000000000000D+00
   326  3.2500000000000D+00  0.0000000000000D+00  0.0000000000000D+00
   327  3.2600000000000D+00  0.0000000000000D+00  0.0000000000000D+00
   328  3.2700000000000D+00  0.0000000000000D+00  0.0000000000000D+00
   329  3.2800000000000D+00  0.0000000000000D+00  0.0000000000000D+00
   330  3.2900000000000D+00  0.0000000000000D+00  0.0000000000000D+00
   331  3.3000000000000D+00  0.0000000000000D+00  0.0000000000000D+00
   332  3.3100000000000D+00  0.0000000000000D+00  0.0000000000000D+00
   333  3.3200000000000D+00  0.0000000000000D+00  0.0000000000000D+00
   334  3.3300000000000D+00  0.0000000000000D+00  0.0000000000000D+00
   335  3.3400000000000D+00  0.0000000000000D+00  0.0000000000000D+00
   336  3.3500000000000D+00  0.0000000000000D+00  0.0000000000000D+00
   337  3.3600000000000D+00  0.0000000000000D+00  0.0000000000000D+00
   338  3.3700000000000D+00  0.0000000000000D+00  0.0000000000000D+00
   339  3.3800000000000D+00  0.0000000000000D+00  0.0000000000000D+00
   340  3.3900000000000D+00  0.0000000000000D+00  0.0000000000000D+00
   341  3.4000000000000D+00  0.0000000000000D+00  0.0000000000000D+00
   342  3.4100000000000D+00  0.0000000000000D+00  0.0000000000000D+00
   343  3.4200000000000D+00  0.0000000000000D+00  0.0000000000000D+00
   344  3.4300000000000D+00  0.0000000000000D+00  0.0000000000000D+00
   345  3.4400000000000D+00  0.0000000000000D+00  0.0000000000000D+00
   346  3.4500000000000D+00  0.0000000000000D+00  0.0000000000000D+00
   347  3.4600000000000D+00  0.0000000000000D+00  0.0000000000000D+00
   348  3.4700000000000D+00  0.0000000000000D+00  0.0000000000000D+00
   349  3.4800000000000D+00  0.0000000000000D+00  0.0000000000000D+00
   350  3.4900000000000D+00  0.0000000000000D+00  0.0000000000000D+00
   351  3.5000000000000D+00  0.0000000000000D+00  0.0000000000000D+00
   352  3.5100000000000D+00  0.0000000000000D+00  0.0000000000000D+00
   353  3.5200000000000D+00  0.0000000000000D+00  0.0000000000000D+00
   354  3.5300000000000D+00  0.0000000000000D+00  0.0000000000000D+00
   355  3.5400000000000D+00  0.0000000000000D+00  0.0000000000000D+00
   356  3.5500000000000D+00  0.0000000000000D+00  0.0000000000000D+00
   357  3.5600000000000D+00  0.0000000000000D+00  0.0000000000000D+00
   358  3.5700000000000D+00  0.0000000000000D+00  0.0000000000000D+00
   359  3.5800000000000D+00  0.0000000000000D+00  0.0000000000000D+00
   360  3.5900000000000D+00  0.0000000000000D+00  0.0000000000000D+00
   361  3.6000000000000D+00  0.0000000000000D+00  0.0000000000000D+00
   362  3.6100000000000D+00  0.0000000000000D+00  0.0000000000000D+00
   363  3.6200000000000D+00  0.0000000000000D+00  0.0000000000000D+00
   364  3.6300000000000D+00  0.0000000000000D+00  0.0000000000000D+00
   365  3.6400000000000D+00  0.0000000000000D+00  0.0000000000000D+00
   366  3.6500000000000D+00  0.0000000000000D+00  0.0000000000000D+00
   367  3.6600000000000D+00  0.0000000000000D+00  0.0000000000000D+00
   368  3.6700000000000D+00  0.0000000000000D+00  0.0000000000000D+00
   369  3.6800000000000D+00  0.0000000000000D+00  0.0000000000000D+00
   370  3.6900000000000D+00  0.0000000000000D+00  0.0000000000000D+00
   371  3.7000000000000D+00  0.0000000000000D+00  0.0000000000000D+00
   372  3.7100000000000D+00  0.0000000000000D+00  0.0000000000000D+00
   373  3.7200000000000D+00  0.0000000000000D+00  0.0000000000000D+00
   374  3.7300000000000D+00  0.0000000000000D+00  0.0000000000000D+00
   375  3.7400000000000D+00  0.0000000000000D+00  0.0000000000000D+00
   376  3.7500000000000D+00  0.0000000000000D+00  0.0000000000000D+00
   377  3.7600000000000D+00  0.0000000000000D+00  0.0000000000000D+00
   378  3.7700000000000D+00  0.0000000000000D+00  0.0000000000000D+00
   379  3.7800000000000D+00  0.0000000000000D+00  0.0000000000000D+00
   380  3.7900000000000D+00  0.0000000000000D+00  0.0000000000000D+00
   381  3.8000000000000D+00  0.0000000000000D+00  0.0000000000000D+00
   382  3.8100000000000D+00  0.0000000000000D+00  0.0000000000000D+00
   383  3.8200000000000D+00  0.0000000000000D+00  0.0000000000000D+00
   384  3.8300000000000D+00  0.0000000000000D+00  0.0000000000000D+00
   385  3.8400000000000D+00  0.0000000000000D+00  0.0000000000000D+00
   386  3.8500000000000D+00  0.0000000000000D+00  0.0000000000000D+00
   387  3.8600000000000D+00  0.0000000000000D+00  0.0000000000000D+00
   388  3.8700000000000D+00  0.0000000000000D+00  0.0000000000000D+00
   389  3.8800000000000D+00  0.0000000000000D+00  0.0000000000000D+00
   390  3.8900000000000D+00  0.0000000000000D+00  0.0000000000000D+00
   391  3.9000000000000D+00  0.0000000000000D+00  0.0000000000000D+00
   392  3.9100000000000D+00  0.0000000000000D+00  0.0000000000000D+00
   393  3.9200000000000D+00  0.0000000000000D+00  0.0000000000000D+00
   394  3.9300000000000D+00  0.0000000000000D+00  0.0000000000000D+00
   395  3.9400000000000D+00  0.0000000000000D+00  0.0000000000000D+00
   396  3.9500000000000D+00  0.0000000000000D+00  0.0000000000000D+00
   397  3.9600000000000D+00  0.0000000000000D+00  0.0000000000000D+00
   398  3.9700000000000D+00  0.0000000000000D+00  0.0000000000000D+00
   399  3.9800000000000D+00  0.0000000000000D+00  0.0000000000000D+00
   400  3.9900000000000D+00  0.0000000000000D+00  0.0000000000000D+00
   401  4.0000000000000D+00  0.0000000000000D+00  0.0000000000000D+00
   402  4.0100000000000D+00  0.0000000000000D+00  0.0000000000000D+00
   403  4.0200000000000D+00  0.0000000000000D+00  0.0000000000000D+00
   404  4.0300000000000D+00  0.0000000000000D+00  0.0000000000000D+00
   405  4.0400000000000D+00  0.0000000000000D+00  0.0000000000000D+00
   406  4.0500000000000D+00  0.0000000000000D+00  0.0000000000000D+00
   407  4.0600000000000D+00  0.0000000000000D+00  0.0000000000000D+00
   408  4.0700000000000D+00  0.0000000000000D+00  0.0000000000000D+00
   409  4.0800000000000D+00  0.0000000000000D+00  0.0000000000000D+00
   410  4.0900000000000D+00  0.0000000000000D+00  0.0000000000000D+00
   411  4.1000000000000D+00  0.0000000000000D+00  0.0000000000000D+00
   412  4.1100000000000D+00  0.0000000000000D+00  0.0000000000000D+00
   413  4.1200000000000D+00  0.0000000000000D+00  0.0000000000000D+00
   414  4.1300000000000D+00  0.0000000000000D+00  0.0000000000000D+00
   415  4.1400000000000D+00  0.0000000000000D+00  0.0000000000000D+00
   416  4.1500000000000D+00  0.0000000000000D+00  0.0000000000000D+00
   417  4.1600000000000D+00  0.0000000000000D+00  0.0000000000000D+00
   418  4.1700000000000D+00  0.0000000000000D+00  0.0000000000000D+00
   419  4.1800000000000D+00  0.0000000000000D+00  0.0000000000000D+00
   420  4.1900000000000D+00  0.0000000000000D+00  0.0000000000000D+00
   421  4.2000000000000D+00  0.0000000000000D+00  0.0000000000000D+00
   422  4.2100000000000D+00  0.0000000000000D+00  0.0000000000000D+00
   423  4.2200000000000D+00  0.0000000000000D+00  0.0000000000000D+00