Cs    ONCVPSP-3.3.0  r_core=   2.27353   1.85623   2.01788   1.90105
     55.0000      9.0000      220117    zatom,zion,pspd
     8      11   3     4   600     0    pspcod,pspxc,lmax,lloc,mmax,r2well
  5.99000000  0.00000000  0.00000000    rchrg fchrg qchrg
     2     2     2     2     0    nproj
     1     1           extension_switch
   0                         6.1761037321289D+00  7.5633431748588D-01
     1  0.0000000000000D+00  3.4986735730769D-12 -8.7405482157576D-12
     2  1.0000000000000D-02  2.2819869625402D-02  1.0192269159229D-03
     3  2.0000000000000D-02  4.5646253174184D-02  2.0034025804992D-03
     4  3.0000000000000D-02  6.8485589585244D-02  2.9176628789725D-03
     5  4.0000000000000D-02  9.1344168113134D-02  3.7275172635064D-03
     6  5.0000000000000D-02  1.1422805419655D-01  4.3990337731868D-03
     7  6.0000000000000D-02  1.3714301617713D-01  4.8990219440382D-03
     8  7.0000000000000D-02  1.6009445314793D-01  5.1952129159696D-03
     9  8.0000000000000D-02  1.8308732420739D-01  5.2564360523072D-03
    10  9.0000000000000D-02  2.0612607939022D-01  5.0527913985055D-03
    11  1.0000000000000D-01  2.2921459254153D-01  4.5558173196458D-03
    12  1.1000000000000D-01  2.5235609639432D-01  3.7386526714307D-03
    13  1.2000000000000D-01  2.7555312010367D-01  2.5761928766665D-03
    14  1.3000000000000D-01  2.9880742948325D-01  1.0452392983542D-03
    15  1.4000000000000D-01  3.2211997018138D-01 -8.7535867823033D-04
    16  1.5000000000000D-01  3.4549081402440D-01 -3.2045694189380D-03
    17  1.6000000000000D-01  3.6891910874545D-01 -5.9590532091128D-03
    18  1.7000000000000D-01  3.9240303130581D-01 -9.1530453295532D-03
    19  1.8000000000000D-01  4.1593974500463D-01 -1.2798248524064D-02
    20  1.9000000000000D-01  4.3952536056088D-01 -1.6903735312371D-02
    21  2.0000000000000D-01  4.6315490133864D-01 -2.1475860570164D-02
    22  2.1000000000000D-01  4.8682227287347D-01 -2.6518184764701D-02
    23  2.2000000000000D-01  5.1052023684380D-01 -3.2031408199428D-02
    24  2.3000000000000D-01  5.3424038961709D-01 -3.8013316584828D-02
    25  2.4000000000000D-01  5.5797314548529D-01 -4.4458738215222D-02
    26  2.5000000000000D-01  5.8170772468900D-01 -5.1359512992378D-02
    27  2.6000000000000D-01  6.0543214631415D-01 -5.8704473497278D-02
    28  2.7000000000000D-01  6.2913322612862D-01 -6.6479438270339D-02
    29  2.8000000000000D-01  6.5279657941001D-01 -7.4667217419045D-02
    30  2.9000000000000D-01  6.7640662879903D-01 -8.3247630629387D-02
    31  3.0000000000000D-01  6.9994661719613D-01 -9.2197537614783D-02
    32  3.1000000000000D-01  7.2339862570176D-01 -1.0149088099254D-01
    33  3.2000000000000D-01  7.4674359658363D-01 -1.1109874153417D-01
    34  3.3000000000000D-01  7.6996136123691D-01 -1.2098940569188D-01
    35  3.4000000000000D-01  7.9303067308599D-01 -1.3112844525938D-01
    36  3.5000000000000D-01  8.1592924535937D-01 -1.4147880898098D-01
    37  3.6000000000000D-01  8.3863379365176D-01 -1.5200092587936D-01
    38  3.7000000000000D-01  8.6112008317054D-01 -1.6265282002827D-01
    39  3.8000000000000D-01  8.8336298054707D-01 -1.7339023645388D-01
    40  3.9000000000000D-01  9.0533651007634D-01 -1.8416677780565D-01
    41  4.0000000000000D-01  9.2701391423254D-01 -1.9493405139583D-01
    42  4.1000000000000D-01  9.4836771829191D-01 -2.0564182616615D-01
    43  4.2000000000000D-01  9.6936979887896D-01 -2.1623819910027D-01
    44  4.3000000000000D-01  9.8999145623676D-01 -2.2666977056195D-01
    45  4.4000000000000D-01  1.0102034900079D+00 -2.3688182800190D-01
    46  4.5000000000000D-01  1.0299762782984D+00 -2.4681853744055D-01
    47  4.6000000000000D-01  1.0492798597840D+00 -2.5642314209937D-01
    48  4.7000000000000D-01  1.0680840186045D+00 -2.6563816752222D-01
    49  4.8000000000000D-01  1.0863583717818D+00 -2.7440563249643D-01
    50  4.9000000000000D-01  1.1040724588847D+00 -2.8266726505616D-01
    51  5.0000000000000D-01  1.1211958336531D+00 -2.9036472282388D-01
    52  5.1000000000000D-01  1.1376981572861D+00 -2.9743981692213D-01
    53  5.2000000000000D-01  1.1535492930890D+00 -3.0383473866615D-01
    54  5.3000000000000D-01  1.1687194021665D+00 -3.0949228822969D-01
    55  5.4000000000000D-01  1.1831790398442D+00 -3.1435610445920D-01
    56  5.5000000000000D-01  1.1968992524925D+00 -3.1837089499900D-01
    57  5.6000000000000D-01  1.2098516744254D+00 -3.2148266587890D-01
    58  5.7000000000000D-01  1.2220086245414D+00 -3.2363894970833D-01
    59  5.8000000000000D-01  1.2333432023718D+00 -3.2478903161596D-01
    60  5.9000000000000D-01  1.2438293831999D+00 -3.2488417207262D-01
    61  6.0000000000000D-01  1.2534421119178D+00 -3.2387782573649D-01
    62  6.1000000000000D-01  1.2621573952831D+00 -3.2172585546415D-01
    63  6.2000000000000D-01  1.2699523922453D+00 -3.1838674063910D-01
    64  6.3000000000000D-01  1.2768055020126D+00 -3.1382177898003D-01
    65  6.4000000000000D-01  1.2826964495352D+00 -3.0799528100584D-01
    66  6.5000000000000D-01  1.2876063680862D+00 -3.0087475635134D-01
    67  6.6000000000000D-01  1.2915178786298D+00 -2.9243109114849D-01
    68  6.7000000000000D-01  1.2944151656737D+00 -2.8263871571200D-01
    69  6.8000000000000D-01  1.2962840493119D+00 -2.7147576179456D-01
    70  6.9000000000000D-01  1.2971120531747D+00 -2.5892420870751D-01
    71  7.0000000000000D-01  1.2968884680149D+00 -2.4497001763559D-01
    72  7.1000000000000D-01  1.2956044106709D+00 -2.2960325351006D-01
    73  7.2000000000000D-01  1.2932528781616D+00 -2.1281819384402D-01
    74  7.3000000000000D-01  1.2898287966829D+00 -1.9461342397431D-01
    75  7.4000000000000D-01  1.2853290652906D+00 -1.7499191819929D-01
    76  7.5000000000000D-01  1.2797525940721D+00 -1.5396110634804D-01
    77  7.6000000000000D-01  1.2731003366250D+00 -1.3153292536539D-01
    78  7.7000000000000D-01  1.2653753166812D+00 -1.0772385554865D-01
    79  7.8000000000000D-01  1.2565826487321D+00 -8.2554941124428D-02
    80  7.9000000000000D-01  1.2467295525318D+00 -5.6051794909525D-02
    81  8.0000000000000D-01  1.2358253613734D+00 -2.8244586856080D-02
    82  8.1000000000000D-01  1.2238815240570D+00  8.3198366074222D-04
    83  8.2000000000000D-01  1.2109116004872D+00  3.1138731894961D-02
    84  8.3000000000000D-01  1.1969312508608D+00  6.2632048144016D-02
    85  8.4000000000000D-01  1.1819582184260D+00  9.5263974486054D-02
    86  8.5000000000000D-01  1.1660123058197D+00  1.2898229773983D-01
    87  8.6000000000000D-01  1.1491153450081D+00  1.6373065848453D-01
    88  8.7000000000000D-01  1.1312911608814D+00  1.9944867591507D-01
    89  8.8000000000000D-01  1.1125655285747D+00  2.3607208824635D-01
    90  8.9000000000000D-01  1.0929661246094D+00  2.7353290831846D-01
    91  9.0000000000000D-01  1.0725224719722D+00  3.1175959399430D-01
    92  9.1000000000000D-01  1.0512658792720D+00  3.5067723288060D-01
    93  9.2000000000000D-01  1.0292293741332D+00  3.9020774084531D-01
    94  9.3000000000000D-01  1.0064476310090D+00  4.3027007374659D-01
    95  9.4000000000000D-01  9.8295689361737D-01  4.7078045173284D-01
    96  9.5000000000000D-01  9.5879489222196D-01  5.1165259541994D-01
    97  9.6000000000000D-01  9.3400075600038D-01  5.5279797319993D-01
    98  9.7000000000000D-01  9.0861492076130D-01  5.9412605888644D-01
    99  9.8000000000000D-01  8.8267903228872D-01  6.3554459885508D-01
   100  9.9000000000000D-01  8.5623584560945D-01  6.7695988779400D-01
   101  1.0000000000000D+00  8.2932912049540D-01  7.1827705213840D-01
   102  1.0100000000000D+00  8.0200351352718D-01  7.5940034022574D-01
   103  1.0200000000000D+00  7.7430446705932D-01  8.0023341817418D-01
   104  1.0300000000000D+00  7.4627809544014D-01  8.4067967045608D-01
   105  1.0400000000000D+00  7.1797106884985D-01  8.8064250411288D-01
   106  1.0500000000000D+00  6.8943049513158D-01  9.2002565553300D-01
   107  1.0600000000000D+00  6.6070379999775D-01  9.5873349869724D-01
   108  1.0700000000000D+00  6.3183860600196D-01  9.9667135378094D-01
   109  1.0800000000000D+00  6.0288261067224D-01  1.0337457949921D+00
   110  1.0900000000000D+00  5.7388346420561D-01  1.0698649565186D+00
   111  1.1000000000000D+00  5.4488864712755D-01  1.1049388354563D+00
   112  1.1100000000000D+00  5.1594534832050D-01  1.1388795905915D+00
   113  1.1200000000000D+00  4.8710034382591D-01  1.1716018359213D+00
   114  1.1300000000000D+00  4.5839987682232D-01  1.2030229278054D+00
   115  1.1400000000000D+00  4.2988953917948D-01  1.2330632446574D+00
   116  1.1500000000000D+00  4.0161415498307D-01  1.2616464581086D+00
   117  1.1600000000000D+00  3.7361766641831D-01  1.2886997946014D+00
   118  1.1700000000000D+00  3.4594302239371D-01  1.3141542863958D+00
   119  1.1800000000000D+00  3.1863207027739D-01  1.3379450110074D+00
   120  1.1900000000000D+00  2.9172545110661D-01  1.3600113181364D+00
   121  1.2000000000000D+00  2.6526249861774D-01  1.3802970431921D+00
   122  1.2100000000000D+00  2.3928114243731D-01  1.3987507065428D+00
   123  1.2200000000000D+00  2.1381781575191D-01  1.4153256976968D+00
   124  1.2300000000000D+00  1.8890736776155D-01  1.4299804436651D+00
   125  1.2400000000000D+00  1.6458298120776D-01  1.4426785607971D+00
   126  1.2500000000000D+00  1.4087609524719D-01  1.4533889894530D+00
   127  1.2600000000000D+00  1.1781633391698D-01  1.4620861109505D+00
   128  1.2700000000000D+00  9.5431440426438D-02  1.4687498462637D+00
   129  1.2800000000000D+00  7.3747217488622D-02  1.4733657360186D+00
   130  1.2900000000000D+00  5.2787473870372D-02  1.4759250014394D+00
   131  1.3000000000000D+00  3.2573977333170D-02  1.4764245859194D+00
   132  1.3100000000000D+00  1.3126414111550D-02  1.4748671769717D+00
   133  1.3200000000000D+00 -5.5376449667712D-03  1.4712612084442D+00
   134  1.3300000000000D+00 -2.3402771609328D-02  1.4656208428679D+00
   135  1.3400000000000D+00 -4.0455700367251D-02  1.4579659339343D+00
   136  1.3500000000000D+00 -5.6685342095528D-02  1.4483219692182D+00
   137  1.3600000000000D+00 -7.2082790513773D-02  1.4367199931951D+00
   138  1.3700000000000D+00 -8.6641321894418D-02  1.4231965108343D+00
   139  1.3800000000000D+00 -1.0035638790708D-01  1.4077933720581D+00
   140  1.3900000000000D+00 -1.1322560164408D-01  1.3905576373420D+00
   141  1.4000000000000D+00 -1.2524871694422D-01  1.3715414250060D+00
   142  1.4100000000000D+00 -1.3642760108021D-01  1.3508017405935D+00
   143  1.4200000000000D+00 -1.4676620094502D-01  1.3284002889386D+00
   144  1.4300000000000D+00 -1.5627050290136D-01  1.3044032696035D+00
   145  1.4400000000000D+00 -1.6494848641623D-01  1.2788811562492D+00
   146  1.4500000000000D+00 -1.7281007172545D-01  1.2519084608505D+00
   147  1.4600000000000D+00 -1.7986706168720D-01  1.2235634834206D+00
   148  1.4700000000000D+00 -1.8613307808036D-01  1.1939280481870D+00
   149  1.4800000000000D+00 -1.9162349259199D-01  1.1630872271163D+00
   150  1.4900000000000D+00 -1.9635535272944D-01  1.1311290516760D+00
   151  1.5000000000000D+00 -2.0034730298450D-01  1.0981442139450D+00
   152  1.5100000000000D+00 -2.0361950147915D-01  1.0642257579502D+00
   153  1.5200000000000D+00 -2.0619353245971D-01  1.0294687624354D+00
   154  1.5300000000000D+00 -2.0809231490709D-01  9.9397001603161D-01
   155  1.5400000000000D+00 -2.0934000762198D-01  9.5782768601484D-01
   156  1.5500000000000D+00 -2.0996191110376D-01  9.2114098173012D-01
   157  1.5600000000000D+00 -2.0998436657103D-01  8.8400981384660D-01
   158  1.5700000000000D+00 -2.0943465247348D-01  8.4653445056241D-01
   159  1.5800000000000D+00 -2.0834087884383D-01  8.0881517194456D-01
   160  1.5900000000000D+00 -2.0673187984475D-01  7.7095192347788D-01
   161  1.6000000000000D+00 -2.0463710487365D-01  7.3304397006806D-01
   162  1.6100000000000D+00 -2.0208650856110D-01  6.9518955145981D-01
   163  1.6200000000000D+00 -1.9911044004719D-01  6.5748554038149D-01
   164  1.6300000000000D+00 -1.9573953183994D-01  6.2002710424630D-01
   165  1.6400000000000D+00 -1.9200458865350D-01  5.8290737174004D-01
   166  1.6500000000000D+00 -1.8793647649871D-01  5.4621710501236D-01
   167  1.6600000000000D+00 -1.8356601242509D-01  5.1004437877284D-01
   168  1.6700000000000D+00 -1.7892385515318D-01  4.7447426689196D-01
   169  1.6800000000000D+00 -1.7404039699067D-01  4.3958853775969D-01
   170  1.6900000000000D+00 -1.6894565723102D-01  4.0546535886033D-01
   171  1.7000000000000D+00 -1.6366917742112D-01  3.7217901177064D-01
   172  1.7100000000000D+00 -1.5823991864407D-01  3.3979961785288D-01
   173  1.7200000000000D+00 -1.5268616120350D-01  3.0839287583402D-01
   174  1.7300000000000D+00 -1.4703540678269D-01  2.7801981128575D-01
   175  1.7400000000000D+00 -1.4131428348095D-01  2.4873653923932D-01
   176  1.7500000000000D+00 -1.3554845369970D-01  2.2059403959985D-01
   177  1.7600000000000D+00 -1.2976252532125D-01  1.9363794672151D-01
   178  1.7700000000000D+00 -1.2397996601797D-01  1.6790835234728D-01
   179  1.7800000000000D+00 -1.1822302120613D-01  1.4343962350445D-01
   180  1.7900000000000D+00 -1.1251263531375D-01  1.2026023399348D-01
   181  1.8000000000000D+00 -1.0686837570729D-01  9.8392605502798D-02
   182  1.8100000000000D+00 -1.0130836701963D-01  7.7852994706892D-02
   183  1.8200000000000D+00 -9.5849205898789D-02  5.8651287969456D-02
   184  1.8300000000000D+00 -9.0505939221940D-02  4.0791078057218D-02
   185  1.8400000000000D+00 -8.5291977181634D-02  2.4269455400817D-02
   186  1.8500000000000D+00 -8.0218959557743D-02  9.0765566832704D-03
   187  1.8600000000000D+00 -7.5296804753434D-02 -4.8040333013995D-03
   188  1.8700000000000D+00 -7.0533851692201D-02 -1.7394433138111D-02
   189  1.8800000000000D+00 -6.5936975324781D-02 -2.8721794035903D-02
   190  1.8900000000000D+00 -6.1511754642945D-02 -3.8817488748910D-02
   191  1.9000000000000D+00 -5.7262699868186D-02 -4.7716009944353D-02
   192  1.9100000000000D+00 -5.3193200254154D-02 -5.5455200018845D-02
   193  1.9200000000000D+00 -4.9305535832166D-02 -6.2076223840863D-02
   194  1.9300000000000D+00 -4.5600962885340D-02 -6.7623157410442D-02
   195  1.9400000000000D+00 -4.2079755473795D-02 -7.2142807425911D-02
   196  1.9500000000000D+00 -3.8741258624645D-02 -7.5684479756497D-02
   197  1.9600000000000D+00 -3.5583947674564D-02 -7.8299723251442D-02
   198  1.9700000000000D+00 -3.2605487253109D-02 -8.0042080554377D-02
   199  1.9800000000000D+00 -2.9802793414471D-02 -8.0966828703094D-02
   200  1.9900000000000D+00 -2.7172097648088D-02 -8.1130714868484D-02
   201  2.0000000000000D+00 -2.4709012721701D-02 -8.0591687492070D-02
   202  2.0100000000000D+00 -2.2408599843836D-02 -7.9408624505861D-02
   203  2.0200000000000D+00 -2.0265436940196D-02 -7.7641059409024D-02
   204  2.0300000000000D+00 -1.8273687705673D-02 -7.5348906345937D-02
   205  2.0400000000000D+00 -1.6427171101131D-02 -7.2592185302712D-02
   206  2.0500000000000D+00 -1.4719430964120D-02 -6.9430748620992D-02
   207  2.0600000000000D+00 -1.3143805496510D-02 -6.5924009557863D-02
   208  2.0700000000000D+00 -1.1693496168446D-02 -6.2130674554285D-02
   209  2.0800000000000D+00 -1.0361635872611D-02 -5.8108479721423D-02
   210  2.0900000000000D+00 -9.1413559780112D-03 -5.3913932756801D-02
   211  2.1000000000000D+00 -8.0258518341062D-03 -4.9602061855546D-02
   212  2.1100000000000D+00 -7.0084467897481D-03 -4.5226171333551D-02
   213  2.1200000000000D+00 -6.0826539498737D-03 -4.0837606674389D-02
   214  2.1300000000000D+00 -5.2422358782090D-03 -3.6485528220663D-02
   215  2.1400000000000D+00 -4.4812617712198D-03 -3.2216695157706D-02
   216  2.1500000000000D+00 -3.7941615102583D-03 -2.8075261849471D-02
   217  2.1600000000000D+00 -3.1757767916168D-03 -2.4102585889465D-02
   218  2.1700000000000D+00 -2.6214092351943D-03 -2.0337047860601D-02
   219  2.1800000000000D+00 -2.1268651366516D-03 -1.6813884203643D-02
   220  2.1900000000000D+00 -1.6884969973528D-03 -1.3565032590877D-02
   221  2.2000000000000D+00 -1.3034853213714D-03 -1.0621078510717D-02
   222  2.2100000000000D+00 -9.6900825746973D-04 -8.0038336779253D-03
   223  2.2200000000000D+00 -6.8288480670555D-04 -5.7313996649128D-03
   224  2.2300000000000D+00 -4.4311873049329D-04 -3.8108083678122D-03
   225  2.2400000000000D+00 -2.5246078310975D-04 -2.2898919142730D-03
   226  2.2500000000000D+00 -1.1237360591138D-04 -1.1955635622436D-03
   227  2.2600000000000D+00 -2.1896153070613D-05 -5.1169517254778D-04
   228  2.2700000000000D+00  2.4425407156104D-05 -1.4679368210774D-04
   229  2.2800000000000D+00  3.3533367414469D-05  3.0518175503673D-06
   230  2.2900000000000D+00  2.0216961394072D-05  2.8697578337441D-05
   231  2.3000000000000D+00  1.3594076150710D-06  2.6044695533526D-06
   232  2.3100000000000D+00 -5.9947890688078D-06 -1.3231770087091D-05
   233  2.3200000000000D+00 -4.6124737618214D-06 -1.1177902302026D-05
   234  2.3300000000000D+00  2.7840268341866D-07  4.4855683749560D-07
   235  2.3400000000000D+00  1.2718076091652D-06  2.2210953564490D-06
   236  2.3500000000000D+00  7.8493906230813D-07  1.4539301161902D-06
   237  2.3600000000000D+00 -4.0360380448957D-08  9.6477155980915D-08
   238  2.3700000000000D+00 -8.9960025023432D-08  2.1503978083678D-07
   239  2.3800000000000D+00 -4.1923651817900D-08  1.0021398834038D-07
   240  2.3900000000000D+00  0.0000000000000D+00  0.0000000000000D+00
   241  2.4000000000000D+00  0.0000000000000D+00  0.0000000000000D+00
   242  2.4100000000000D+00  0.0000000000000D+00  0.0000000000000D+00
   243  2.4200000000000D+00  0.0000000000000D+00  0.0000000000000D+00
   244  2.4300000000000D+00  0.0000000000000D+00  0.0000000000000D+00
   245  2.4400000000000D+00  0.0000000000000D+00  0.0000000000000D+00
   246  2.4500000000000D+00  0.0000000000000D+00  0.0000000000000D+00
   247  2.4600000000000D+00  0.0000000000000D+00  0.0000000000000D+00
   248  2.4700000000000D+00  0.0000000000000D+00  0.0000000000000D+00
   249  2.4800000000000D+00  0.0000000000000D+00  0.0000000000000D+00
   250  2.4900000000000D+00  0.0000000000000D+00  0.0000000000000D+00
   251  2.5000000000000D+00  0.0000000000000D+00  0.0000000000000D+00
   252  2.5100000000000D+00  0.0000000000000D+00  0.0000000000000D+00
   253  2.5200000000000D+00  0.0000000000000D+00  0.0000000000000D+00
   254  2.5300000000000D+00  0.0000000000000D+00  0.0000000000000D+00
   255  2.5400000000000D+00  0.0000000000000D+00  0.0000000000000D+00
   256  2.5500000000000D+00  0.0000000000000D+00  0.0000000000000D+00
   257  2.5600000000000D+00  0.0000000000000D+00  0.0000000000000D+00
   258  2.5700000000000D+00  0.0000000000000D+00  0.0000000000000D+00
   259  2.5800000000000D+00  0.0000000000000D+00  0.0000000000000D+00
   260  2.5900000000000D+00  0.0000000000000D+00  0.0000000000000D+00
   261  2.6000000000000D+00  0.0000000000000D+00  0.0000000000000D+00
   262  2.6100000000000D+00  0.0000000000000D+00  0.0000000000000D+00
   263  2.6200000000000D+00  0.0000000000000D+00  0.0000000000000D+00
   264  2.6300000000000D+00  0.0000000000000D+00  0.0000000000000D+00
   265  2.6400000000000D+00  0.0000000000000D+00  0.0000000000000D+00
   266  2.6500000000000D+00  0.0000000000000D+00  0.0000000000000D+00
   267  2.6600000000000D+00  0.0000000000000D+00  0.0000000000000D+00
   268  2.6700000000000D+00  0.0000000000000D+00  0.0000000000000D+00
   269  2.6800000000000D+00  0.0000000000000D+00  0.0000000000000D+00
   270  2.6900000000000D+00  0.0000000000000D+00  0.0000000000000D+00
   271  2.7000000000000D+00  0.0000000000000D+00  0.0000000000000D+00
   272  2.7100000000000D+00  0.0000000000000D+00  0.0000000000000D+00
   273  2.7200000000000D+00  0.0000000000000D+00  0.0000000000000D+00
   274  2.7300000000000D+00  0.0000000000000D+00  0.0000000000000D+00
   275  2.7400000000000D+00  0.0000000000000D+00  0.0000000000000D+00
   276  2.7500000000000D+00  0.0000000000000D+00  0.0000000000000D+00
   277  2.7600000000000D+00  0.0000000000000D+00  0.0000000000000D+00
   278  2.7700000000000D+00  0.0000000000000D+00  0.0000000000000D+00
   279  2.7800000000000D+00  0.0000000000000D+00  0.0000000000000D+00
   280  2.7900000000000D+00  0.0000000000000D+00  0.0000000000000D+00
   281  2.8000000000000D+00  0.0000000000000D+00  0.0000000000000D+00
   282  2.8100000000000D+00  0.0000000000000D+00  0.0000000000000D+00
   283  2.8200000000000D+00  0.0000000000000D+00  0.0000000000000D+00
   284  2.8300000000000D+00  0.0000000000000D+00  0.0000000000000D+00
   285  2.8400000000000D+00  0.0000000000000D+00  0.0000000000000D+00
   286  2.8500000000000D+00  0.0000000000000D+00  0.0000000000000D+00
   287  2.8600000000000D+00  0.0000000000000D+00  0.0000000000000D+00
   288  2.8700000000000D+00  0.0000000000000D+00  0.0000000000000D+00
   289  2.8800000000000D+00  0.0000000000000D+00  0.0000000000000D+00
   290  2.8900000000000D+00  0.0000000000000D+00  0.0000000000000D+00
   291  2.9000000000000D+00  0.0000000000000D+00  0.0000000000000D+00
   292  2.9100000000000D+00  0.0000000000000D+00  0.0000000000000D+00
   293  2.9200000000000D+00  0.0000000000000D+00  0.0000000000000D+00
   294  2.9300000000000D+00  0.0000000000000D+00  0.0000000000000D+00
   295  2.9400000000000D+00  0.0000000000000D+00  0.0000000000000D+00
   296  2.9500000000000D+00  0.0000000000000D+00  0.0000000000000D+00
   297  2.9600000000000D+00  0.0000000000000D+00  0.0000000000000D+00
   298  2.9700000000000D+00  0.0000000000000D+00  0.0000000000000D+00
   299  2.9800000000000D+00  0.0000000000000D+00  0.0000000000000D+00
   300  2.9900000000000D+00  0.0000000000000D+00  0.0000000000000D+00
   301  3.0000000000000D+00  0.0000000000000D+00  0.0000000000000D+00
   302  3.0100000000000D+00  0.0000000000000D+00  0.0000000000000D+00
   303  3.0200000000000D+00  0.0000000000000D+00  0.0000000000000D+00
   304  3.0300000000000D+00  0.0000000000000D+00  0.0000000000000D+00
   305  3.0400000000000D+00  0.0000000000000D+00  0.0000000000000D+00
   306  3.0500000000000D+00  0.0000000000000D+00  0.0000000000000D+00
   307  3.0600000000000D+00  0.0000000000000D+00  0.0000000000000D+00
   308  3.0700000000000D+00  0.0000000000000D+00  0.0000000000000D+00
   309  3.0800000000000D+00  0.0000000000000D+00  0.0000000000000D+00
   310  3.0900000000000D+00  0.0000000000000D+00  0.0000000000000D+00
   311  3.1000000000000D+00  0.0000000000000D+00  0.0000000000000D+00
   312  3.1100000000000D+00  0.0000000000000D+00  0.0000000000000D+00
   313  3.1200000000000D+00  0.0000000000000D+00  0.0000000000000D+00
   314  3.1300000000000D+00  0.0000000000000D+00  0.0000000000000D+00
   315  3.1400000000000D+00  0.0000000000000D+00  0.0000000000000D+00
   316  3.1500000000000D+00  0.0000000000000D+00  0.0000000000000D+00
   317  3.1600000000000D+00  0.0000000000000D+00  0.0000000000000D+00
   318  3.1700000000000D+00  0.0000000000000D+00  0.0000000000000D+00
   319  3.1800000000000D+00  0.0000000000000D+00  0.0000000000000D+00
   320  3.1900000000000D+00  0.0000000000000D+00  0.0000000000000D+00
   321  3.2000000000000D+00  0.0000000000000D+00  0.0000000000000D+00
   322  3.2100000000000D+00  0.0000000000000D+00  0.0000000000000D+00
   323  3.2200000000000D+00  0.0000000000000D+00  0.0000000000000D+00
   324  3.2300000000000D+00  0.0000000000000D+00  0.0000000000000D+00
   325  3.2400000000000D+00  0.0000000000000D+00  0.0000000000000D+00
   326  3.2500000000000D+00  0.0000000000000D+00  0.0000000000000D+00
   327  3.2600000000000D+00  0.0000000000000D+00  0.0000000000000D+00
   328  3.2700000000000D+00  0.0000000000000D+00  0.0000000000000D+00
   329  3.2800000000000D+00  0.0000000000000D+00  0.0000000000000D+00
   330  3.2900000000000D+00  0.0000000000000D+00  0.0000000000000D+00
   331  3.3000000000000D+00  0.0000000000000D+00  0.0000000000000D+00
   332  3.3100000000000D+00  0.0000000000000D+00  0.0000000000000D+00
   333  3.3200000000000D+00  0.0000000000000D+00  0.0000000000000D+00
   334  3.3300000000000D+00  0.0000000000000D+00  0.0000000000000D+00
   335  3.3400000000000D+00  0.0000000000000D+00  0.0000000000000D+00
   336  3.3500000000000D+00  0.0000000000000D+00  0.0000000000000D+00
   337  3.3600000000000D+00  0.0000000000000D+00  0.0000000000000D+00
   338  3.3700000000000D+00  0.0000000000000D+00  0.0000000000000D+00
   339  3.3800000000000D+00  0.0000000000000D+00  0.0000000000000D+00
   340  3.3900000000000D+00  0.0000000000000D+00  0.0000000000000D+00
   341  3.4000000000000D+00  0.0000000000000D+00  0.0000000000000D+00
   342  3.4100000000000D+00  0.0000000000000D+00  0.0000000000000D+00
   343  3.4200000000000D+00  0.0000000000000D+00  0.0000000000000D+00
   344  3.4300000000000D+00  0.0000000000000D+00  0.0000000000000D+00
   345  3.4400000000000D+00  0.0000000000000D+00  0.0000000000000D+00
   346  3.4500000000000D+00  0.0000000000000D+00  0.0000000000000D+00
   347  3.4600000000000D+00  0.0000000000000D+00  0.0000000000000D+00
   348  3.4700000000000D+00  0.0000000000000D+00  0.0000000000000D+00
   349  3.4800000000000D+00  0.0000000000000D+00  0.0000000000000D+00
   350  3.4900000000000D+00  0.0000000000000D+00  0.0000000000000D+00
   351  3.5000000000000D+00  0.0000000000000D+00  0.0000000000000D+00
   352  3.5100000000000D+00  0.0000000000000D+00  0.0000000000000D+00
   353  3.5200000000000D+00  0.0000000000000D+00  0.0000000000000D+00
   354  3.5300000000000D+00  0.0000000000000D+00  0.0000000000000D+00
   355  3.5400000000000D+00  0.0000000000000D+00  0.0000000000000D+00
   356  3.5500000000000D+00  0.0000000000000D+00  0.0000000000000D+00
   357  3.5600000000000D+00  0.0000000000000D+00  0.0000000000000D+00
   358  3.5700000000000D+00  0.0000000000000D+00  0.0000000000000D+00
   359  3.5800000000000D+00  0.0000000000000D+00  0.0000000000000D+00
   360  3.5900000000000D+00  0.0000000000000D+00  0.0000000000000D+00
   361  3.6000000000000D+00  0.0000000000000D+00  0.0000000000000D+00
   362  3.6100000000000D+00  0.0000000000000D+00  0.0000000000000D+00
   363  3.6200000000000D+00  0.0000000000000D+00  0.0000000000000D+00
   364  3.6300000000000D+00  0.0000000000000D+00  0.0000000000000D+00
   365  3.6400000000000D+00  0.0000000000000D+00  0.0000000000000D+00
   366  3.6500000000000D+00  0.0000000000000D+00  0.0000000000000D+00
   367  3.6600000000000D+00  0.0000000000000D+00  0.0000000000000D+00
   368  3.6700000000000D+00  0.0000000000000D+00  0.0000000000000D+00
   369  3.6800000000000D+00  0.0000000000000D+00  0.0000000000000D+00
   370  3.6900000000000D+00  0.0000000000000D+00  0.0000000000000D+00
   371  3.7000000000000D+00  0.0000000000000D+00  0.0000000000000D+00
   372  3.7100000000000D+00  0.0000000000000D+00  0.0000000000000D+00
   373  3.7200000000000D+00  0.0000000000000D+00  0.0000000000000D+00
   374  3.7300000000000D+00  0.0000000000000D+00  0.0000000000000D+00
   375  3.7400000000000D+00  0.0000000000000D+00  0.0000000000000D+00
   376  3.7500000000000D+00  0.0000000000000D+00  0.0000000000000D+00
   377  3.7600000000000D+00  0.0000000000000D+00  0.0000000000000D+00
   378  3.7700000000000D+00  0.0000000000000D+00  0.0000000000000D+00
   379  3.7800000000000D+00  0.0000000000000D+00  0.0000000000000D+00
   380  3.7900000000000D+00  0.0000000000000D+00  0.0000000000000D+00
   381  3.8000000000000D+00  0.0000000000000D+00  0.0000000000000D+00
   382  3.8100000000000D+00  0.0000000000000D+00  0.0000000000000D+00
   383  3.8200000000000D+00  0.0000000000000D+00  0.0000000000000D+00
   384  3.8300000000000D+00  0.0000000000000D+00  0.0000000000000D+00
   385  3.8400000000000D+00  0.0000000000000D+00  0.0000000000000D+00
   386  3.8500000000000D+00  0.0000000000000D+00  0.0000000000000D+00
   387  3.8600000000000D+00  0.0000000000000D+00  0.0000000000000D+00
   388  3.8700000000000D+00  0.0000000000000D+00  0.0000000000000D+00
   389  3.8800000000000D+00  0.0000000000000D+00  0.0000000000000D+00
   390  3.8900000000000D+00  0.0000000000000D+00  0.0000000000000D+00
   391  3.9000000000000D+00  0.0000000000000D+00  0.0000000000000D+00
   392  3.9100000000000D+00  0.0000000000000D+00  0.0000000000000D+00
   393  3.9200000000000D+00  0.0000000000000D+00  0.0000000000000D+00
   394  3.9300000000000D+00  0.0000000000000D+00  0.0000000000000D+00
   395  3.9400000000000D+00  0.0000000000000D+00  0.0000000000000D+00
   396  3.9500000000000D+00  0.0000000000000D+00  0.0000000000000D+00
   397  3.9600000000000D+00  0.0000000000000D+00  0.0000000000000D+00
   398  3.9700000000000D+00  0.0000000000000D+00  0.0000000000000D+00
   399  3.9800000000000D+00  0.0000000000000D+00  0.0000000000000D+00
   400  3.9900000000000D+00  0.0000000000000D+00  0.0000000000000D+00
   401  4.0000000000000D+00  0.0000000000000D+00  0.0000000000000D+00
   402  4.0100000000000D+00  0.0000000000000D+00  0.0000000000000D+00
   403  4.0200000000000D+00  0.0000000000000D+00  0.0000000000000D+00
   404  4.0300000000000D+00  0.0000000000000D+00  0.0000000000000D+00
   405  4.0400000000000D+00  0.0000000000000D+00  0.0000000000000D+00
   406  4.0500000000000D+00  0.0000000000000D+00  0.0000000000000D+00
   407  4.0600000000000D+00  0.0000000000000D+00  0.0000000000000D+00
   408  4.0700000000000D+00  0.0000000000000D+00  0.0000000000000D+00
   409  4.0800000000000D+00  0.0000000000000D+00  0.0000000000000D+00
   410  4.0900000000000D+00  0.0000000000000D+00  0.0000000000000D+00
   411  4.1000000000000D+00  0.0000000000000D+00  0.0000000000000D+00
   412  4.1100000000000D+00  0.0000000000000D+00  0.0000000000000D+00
   413  4.1200000000000D+00  0.0000000000000D+00  0.0000000000000D+00
   414  4.1300000000000D+00  0.0000000000000D+00  0.0000000000000D+00
   415  4.1400000000000D+00  0.0000000000000D+00  0.0000000000000D+00
   416  4.1500000000000D+00  0.0000000000000D+00  0.0000000000000D+00
   417  4.1600000000000D+00  0.0000000000000D+00  0.0000000000000D+00
   418  4.1700000000000D+00  0.0000000000000D+00  0.0000000000000D+00
   419  4.1800000000000D+00  0.0000000000000D+00  0.0000000000000D+00
   420  4.1900000000000D+00  0.0000000000000D+00  0.0000000000000D+00
   421  4.2000000000000D+00  0.0000000000000D+00  0.0000000000000D+00
   422  4.2100000000000D+00  0.0000000000000D+00  0.0000000000000D+00