Nd    ONCVPSP-3.3.0  r_core=   2.01081   1.60303   1.87192   1.66143
     60.0000     14.0000      220117    zatom,zion,pspd
     8      11   3     4   600     0    pspcod,pspxc,lmax,lloc,mmax,r2well
  5.99000000  0.00000000  0.00000000    rchrg fchrg qchrg
     2     2     2     2     0    nproj
     1     1           extension_switch
   0                         7.3993292425470D+00  4.9999875294873D-01
     1  0.0000000000000D+00 -4.1654457660911D-12  5.9231397564474D-11
     2  1.0000000000000D-02  3.8245007745029D-02 -1.4187406355559D-02
     3  2.0000000000000D-02  7.6461275456406D-02 -2.8323310816900D-02
     4  3.0000000000000D-02  1.1462007245691D-01 -4.2356481171460D-02
     5  4.0000000000000D-02  1.5269268676369D-01 -5.6236222567525D-02
     6  5.0000000000000D-02  1.9065043439025D-01 -6.9912641203591D-02
     7  6.0000000000000D-02  2.2846466859722D-01 -8.3336902070475D-02
     8  7.0000000000000D-02  2.6610678907977D-01 -9.6461478833617D-02
     9  8.0000000000000D-02  3.0354825108367D-01 -1.0924039400220D-01
    10  9.0000000000000D-02  3.4076057444723D-01 -1.2162944760498D-01
    11  1.0000000000000D-01  3.7771535257214D-01 -1.3358643267964D-01
    12  1.1000000000000D-01  4.1438426133334D-01 -1.4507133598223D-01
    13  1.2000000000000D-01  4.5073906794519D-01 -1.5604652243535D-01
    14  1.3000000000000D-01  4.8675163980996D-01 -1.6647690195744D-01
    15  1.4000000000000D-01  5.2239395338263D-01 -1.7633007744969D-01
    16  1.5000000000000D-01  5.5763810309596D-01 -1.8557647286121D-01
    17  1.6000000000000D-01  5.9245631039839D-01 -1.9418944040583D-01
    18  1.7000000000000D-01  6.2682093296761D-01 -2.0214534616418D-01
    19  1.8000000000000D-01  6.6070447417182D-01 -2.0942363347176D-01
    20  1.9000000000000D-01  6.9407959286049D-01 -2.1600686366581D-01
    21  2.0000000000000D-01  7.2691911357540D-01 -2.2188073394018D-01
    22  2.1000000000000D-01  7.5919603728212D-01 -2.2703407223642D-01
    23  2.2000000000000D-01  7.9088355272964D-01 -2.3145880927978D-01
    24  2.3000000000000D-01  8.2195504855427D-01 -2.3514992804972D-01
    25  2.4000000000000D-01  8.5238412625010D-01 -2.3810539115364D-01
    26  2.5000000000000D-01  8.8214461413425D-01 -2.4032604674950D-01
    27  2.6000000000000D-01  9.1121058243985D-01 -2.4181551383573D-01
    28  2.7000000000000D-01  9.3955635967264D-01 -2.4258004789414D-01
    29  2.8000000000000D-01  9.6715655036944D-01 -2.4262838803257D-01
    30  2.9000000000000D-01  9.9398605439652D-01 -2.4197158692596D-01
    31  3.0000000000000D-01  1.0200200879249D+00 -2.4062282499893D-01
    32  3.1000000000000D-01  1.0452342062166D+00 -2.3859721042451D-01
    33  3.2000000000000D-01  1.0696043283497D+00 -2.3591156663596D-01
    34  3.3000000000000D-01  1.0931067640057D+00 -2.3258420915594D-01
    35  3.4000000000000D-01  1.1157182424302D+00 -2.2863471364237D-01
    36  3.5000000000000D-01  1.1374159436695D+00 -2.2408367712980D-01
    37  3.6000000000000D-01  1.1581775321726D+00 -2.1895247450918D-01
    38  3.7000000000000D-01  1.1779811928303D+00 -2.1326301233699D-01
    39  3.8000000000000D-01  1.1968056695091D+00 -2.0703748209534D-01
    40  3.9000000000000D-01  1.2146303061158D+00 -2.0029811503862D-01
    41  4.0000000000000D-01  1.2314350902090D+00 -1.9306694075748D-01
    42  4.1000000000000D-01  1.2472006991487D+00 -1.8536555156975D-01
    43  4.2000000000000D-01  1.2619085487526D+00 -1.7721487480695D-01
    44  4.3000000000000D-01  1.2755408443984D+00 -1.6863495500782D-01
    45  4.4000000000000D-01  1.2880806344843D+00 -1.5964474795417D-01
    46  4.5000000000000D-01  1.2995118661321D+00 -1.5026192839205D-01
    47  4.6000000000000D-01  1.3098194429827D+00 -1.4050271317150D-01
    48  4.7000000000000D-01  1.3189892849058D+00 -1.3038170141249D-01
    49  4.8000000000000D-01  1.3270083894122D+00 -1.1991173316467D-01
    50  4.9000000000000D-01  1.3338648945235D+00 -1.0910376787377D-01
    51  5.0000000000000D-01  1.3395481428229D+00 -9.7966783799695D-02
    52  5.1000000000000D-01  1.3440487463781D+00 -8.6507699353289D-02
    53  5.2000000000000D-01  1.3473586521941D+00 -7.4731317128783D-02
    54  5.3000000000000D-01  1.3494712078248D+00 -6.2640291212156D-02
    55  5.4000000000000D-01  1.3503812267421D+00 -5.0235118141088D-02
    56  5.5000000000000D-01  1.3500850530319D+00 -3.7514151682906D-02
    57  5.6000000000000D-01  1.3485806249624D+00 -2.4473641385071D-02
    58  5.7000000000000D-01  1.3458675369464D+00 -1.1107794638659D-02
    59  5.8000000000000D-01  1.3419470993972D+00  2.5911382158634D-03
    60  5.9000000000000D-01  1.3368223959613D+00  1.6632756421844D-02
    61  6.0000000000000D-01  1.3304983375985D+00  3.1028379862906D-02
    62  6.1000000000000D-01  1.3229817129668D+00  4.5790899724319D-02
    63  6.2000000000000D-01  1.3142812345663D+00  6.0934610028165D-02
    64  6.3000000000000D-01  1.3044075800952D+00  7.6475021487287D-02
    65  6.4000000000000D-01  1.2933734284719D+00  9.2428659285096D-02
    66  6.5000000000000D-01  1.2811934899897D+00  1.0881284653628D-01
    67  6.6000000000000D-01  1.2678845300814D+00  1.2564547531295D-01
    68  6.7000000000000D-01  1.2534653861930D+00  1.4294476723226D-01
    69  6.8000000000000D-01  1.2379569772896D+00  1.6072902569296D-01
    70  6.9000000000000D-01  1.2213823055477D+00  1.7901638191730D-01
    71  7.0000000000000D-01  1.2037664498260D+00  1.9782453700205D-01
    72  7.1000000000000D-01  1.1851365505472D+00  2.1717050220527D-01
    73  7.2000000000000D-01  1.1655217856742D+00  2.3707033969475D-01
    74  7.3000000000000D-01  1.1449533375146D+00  2.5753890595855D-01
    75  7.4000000000000D-01  1.1234643501506D+00  2.7858960002744D-01
    76  7.5000000000000D-01  1.1010898773495D+00  3.0023411858466D-01
    77  7.6000000000000D-01  1.0778668208867D+00  3.2248221993970D-01
    78  7.7000000000000D-01  1.0538338592772D+00  3.4534149872066D-01
    79  7.8000000000000D-01  1.0290313669972D+00  3.6881717299548D-01
    80  7.9000000000000D-01  1.0035013243496D+00  3.9291188536866D-01
    81  8.0000000000000D-01  9.7728721821665D-01  4.1762551941510D-01
    82  8.1000000000000D-01  9.5043393402137D-01  4.4295503261388D-01
    83  8.2000000000000D-01  9.2298763931102D-01  4.6889430672913D-01
    84  8.3000000000000D-01  8.9499565945675D-01  4.9543401635923D-01
    85  8.4000000000000D-01  8.6650634605254D-01  5.2256151614015D-01
    86  8.5000000000000D-01  8.3756893867879D-01  5.5026074684837D-01
    87  8.6000000000000D-01  8.0823342077829D-01  5.7851216040561D-01
    88  8.7000000000000D-01  7.7855037047011D-01  6.0729266354668D-01
    89  8.8000000000000D-01  7.4857080720073D-01  6.3657557967549D-01
    90  8.9000000000000D-01  7.1834603520001D-01  6.6633062820754D-01
    91  9.0000000000000D-01  6.8792748477108D-01  6.9652392048385D-01
    92  9.1000000000000D-01  6.5736655249746D-01  7.2711797114512D-01
    93  9.2000000000000D-01  6.2671444149602D-01  7.5807172367928D-01
    94  9.3000000000000D-01  5.9602200288017D-01  7.8934058870706D-01
    95  9.4000000000000D-01  5.6533957962277D-01  8.2087649344885D-01
    96  9.5000000000000D-01  5.3471685402214D-01  8.5262794072842D-01
    97  9.6000000000000D-01  5.0420269997552D-01  8.8454007581797D-01
    98  9.7000000000000D-01  4.7384504125274D-01  9.1655475941591D-01
    99  9.8000000000000D-01  4.4369071693646D-01  9.4861064508104D-01
   100  9.9000000000000D-01  4.1378535515685D-01  9.8064325951698D-01
   101  1.0000000000000D+00  3.8417325619210D-01  1.0125850842251D+00
   102  1.0100000000000D+00  3.5489728593680D-01  1.0443656372108D+00
   103  1.0200000000000D+00  3.2599878065521D-01  1.0759115536453D+00
   104  1.0300000000000D+00  2.9751746383574D-01  1.1071466646480D+00
   105  1.0400000000000D+00  2.6949137584557D-01  1.1379920736732D+00
   106  1.0500000000000D+00  2.4195681695588D-01  1.1683662303391D+00
   107  1.0600000000000D+00  2.1494830416587D-01  1.1981850019308D+00
   108  1.0700000000000D+00  1.8849854208787D-01  1.2273617432773D+00
   109  1.0800000000000D+00  1.6263840799334D-01  1.2558073661565D+00
   110  1.0900000000000D+00  1.3739695092822D-01  1.2834304099260D+00
   111  1.1000000000000D+00  1.1280140462403D-01  1.3101371155830D+00
   112  1.1100000000000D+00  8.8877213729656D-02  1.3358315060217D+00
   113  1.1200000000000D+00  6.5648072670010D-02  1.3604154758584D+00
   114  1.1300000000000D+00  4.3135976237455D-02  1.3837888947370D+00
   115  1.1400000000000D+00  2.1361280797586D-02  1.4058497286146D+00
   116  1.1500000000000D+00  3.4277480916212D-04  1.4264941840069D+00
   117  1.1600000000000D+00 -1.9902242902488D-02  1.4456168808129D+00
   118  1.1700000000000D+00 -3.9357878852424D-02  1.4631110597315D+00
   119  1.1800000000000D+00 -5.8009556509426D-02  1.4788688306951D+00
   120  1.1900000000000D+00 -7.5843925925261D-02  1.4927814691277D+00
   121  1.2000000000000D+00 -9.2848773681252D-02  1.5047397671368D+00
   122  1.2100000000000D+00 -1.0901293557984D-01  1.5146344468024D+00
   123  1.2200000000000D+00 -1.2432621460145D-01  1.5223566428757D+00
   124  1.2300000000000D+00 -1.3877930681430D-01  1.5277984621165D+00
   125  1.2400000000000D+00 -1.5236373792195D-01  1.5308536260720D+00
   126  1.2500000000000D+00 -1.6507181317650D-01  1.5314182039168D+00
   127  1.2600000000000D+00 -1.7689658341295D-01  1.5293914413799D+00
   128  1.2700000000000D+00 -1.8783182981557D-01  1.5246766904865D+00
   129  1.2800000000000D+00 -1.9787206997877D-01  1.5171824443665D+00
   130  1.2900000000000D+00 -2.0701258771766D-01  1.5068234801753D+00
   131  1.3000000000000D+00 -2.1524948862820D-01  1.4935221102870D+00
   132  1.3100000000000D+00 -2.2257978338127D-01  1.4772095418084D+00
   133  1.3200000000000D+00 -2.2900150034514D-01  1.4578273417920D+00
   134  1.3300000000000D+00 -2.3451382821029D-01  1.4353290004836D+00
   135  1.3400000000000D+00 -2.3911728966581D-01  1.4096815869279D+00
   136  1.3500000000000D+00 -2.4281394590046D-01  1.3808674840420D+00
   137  1.3600000000000D+00 -2.4560763057649D-01  1.3488861846334D+00
   138  1.3700000000000D+00 -2.4750421302567D-01  1.3137561353015D+00
   139  1.3800000000000D+00 -2.4851188687073D-01  1.2755165968035D+00
   140  1.3900000000000D+00 -2.4864148113374D-01  1.2342294941075D+00
   141  1.4000000000000D+00 -2.4790679014406D-01  1.1899812251735D+00
   142  1.4100000000000D+00 -2.4632491405417D-01  1.1428843752282D+00
   143  1.4200000000000D+00 -2.4391660593502D-01  1.0930793038849D+00
   144  1.4300000000000D+00 -2.4070661411771D-01  1.0407355362136D+00
   145  1.4400000000000D+00 -2.3672401002291D-01  9.8605289692193D-01
   146  1.4500000000000D+00 -2.3200249172889D-01  9.2926232646668D-01
   147  1.4600000000000D+00 -2.2658064345894D-01  8.7062626917031D-01
   148  1.4700000000000D+00 -2.2050214283107D-01  8.1043857986774D-01
   149  1.4800000000000D+00 -2.1381588906883D-01  7.4902380530690D-01
   150  1.4900000000000D+00 -2.0657603702149D-01  6.8673575297892D-01
   151  1.5000000000000D+00 -1.9884191161099D-01  6.2395521048098D-01
   152  1.5100000000000D+00 -1.9067777249576D-01  5.6108665549100D-01
   153  1.5200000000000D+00 -1.8215240908830D-01  4.9855384603116D-01
   154  1.5300000000000D+00 -1.7333851653447D-01  4.3679403887113D-01
   155  1.5400000000000D+00 -1.6431183805210D-01  3.7625075102294D-01
   156  1.5500000000000D+00 -1.5514999771453D-01  3.1736465341916D-01
   157  1.5600000000000D+00 -1.4593106155082D-01  2.6056293015831D-01
   158  1.5700000000000D+00 -1.3673152892448D-01  2.0624505893656D-01
   159  1.5800000000000D+00 -1.2762448324241D-01  1.5477036618112D-01
   160  1.5900000000000D+00 -1.1867675896130D-01  1.0643958073817D-01
   161  1.6000000000000D+00 -1.0994348049522D-01  6.1456851608044D-02
   162  1.6100000000000D+00 -1.0146754353632D-01  1.9931210271453D-02
   163  1.6200000000000D+00 -9.3280823061833D-02 -1.8106505587078D-02
   164  1.6300000000000D+00 -8.5406889878662D-02 -5.2679906314358D-02
   165  1.6400000000000D+00 -7.7866749472447D-02 -8.3821333817084D-02
   166  1.6500000000000D+00 -7.0678702322134D-02 -1.1157231136273D-01
   167  1.6600000000000D+00 -6.3857175230280D-02 -1.3599339614289D-01
   168  1.6700000000000D+00 -5.7413356805870D-02 -1.5715894074128D-01
   169  1.6800000000000D+00 -5.1355146048480D-02 -1.7515758554981D-01
   170  1.6900000000000D+00 -4.5687283588546D-02 -1.9009139274891D-01
   171  1.7000000000000D+00 -4.0411467233459D-02 -2.0207514806160D-01
   172  1.7100000000000D+00 -3.5526479085965D-02 -2.1123563218865D-01
   173  1.7200000000000D+00 -3.1028333225156D-02 -2.1771078192722D-01
   174  1.7300000000000D+00 -2.6910439516625D-02 -2.2164877775794D-01
   175  1.7400000000000D+00 -2.3163781096832D-02 -2.2320706978321D-01
   176  1.7500000000000D+00 -1.9777105477619D-02 -2.2255134223629D-01
   177  1.7600000000000D+00 -1.6737126902480D-02 -2.1985442806976D-01
   178  1.7700000000000D+00 -1.4028739418779D-02 -2.1529517612707D-01
   179  1.7800000000000D+00 -1.1635238694044D-02 -2.0905728027669D-01
   180  1.7900000000000D+00 -9.5385511527744D-03 -2.0132807781867D-01
   181  1.8000000000000D+00 -7.7194684293337D-03 -1.9229732720452D-01
   182  1.8100000000000D+00 -6.1578864715482D-03 -1.8215596691982D-01
   183  1.8200000000000D+00 -4.8330481315971D-03 -1.7109486061103D-01
   184  1.8300000000000D+00 -3.7237858289264D-03 -1.5930354734551D-01
   185  1.8400000000000D+00 -2.8087617620266D-03 -1.4696901062726D-01
   186  1.8500000000000D+00 -2.0667061825144D-03 -1.3427446061751D-01
   187  1.8600000000000D+00 -1.4766537124566D-03 -1.2139812669750D-01
   188  1.8700000000000D+00 -1.0181744562771D-03 -1.0851207977592D-01
   189  1.8800000000000D+00 -6.7159447951903D-04 -9.5781114236891D-02
   190  1.8900000000000D+00 -4.1820911394160D-04 -8.3361668097889D-02
   191  1.9000000000000D+00 -2.4048589835809D-04 -7.1400796539349D-02
   192  1.9100000000000D+00 -1.2225661275922D-04 -6.0035202796957D-02
   193  1.9200000000000D+00 -4.8895653469135D-05 -4.9390339920404D-02
   194  1.9300000000000D+00 -7.4841962741691D-06 -3.9579585847446D-02
   195  1.9400000000000D+00  1.3040207836956D-05 -3.0703493288662D-02
   196  1.9500000000000D+00  2.1751226481945D-05 -2.2856508705826D-02
   197  1.9600000000000D+00  2.5619520999246D-05 -1.6093488718946D-02
   198  1.9700000000000D+00  2.8958996398359D-05 -1.0447590592528D-02
   199  1.9800000000000D+00  3.5078882768700D-05 -6.0279064238878D-03
   200  1.9900000000000D+00  4.5766580787084D-05 -2.9404839232925D-03
   201  2.0000000000000D+00  5.7610071954288D-05 -1.1290226574357D-03
   202  2.0100000000000D+00  5.8840163322544D-05 -2.6509815523121D-04
   203  2.0200000000000D+00  3.8638973338988D-05  2.9977681746152D-05
   204  2.0300000000000D+00  1.1450761842588D-05  3.4373852227183D-05
   205  2.0400000000000D+00 -4.9375257521427D-06 -2.0226496322646D-05
   206  2.0500000000000D+00 -5.5414685468940D-06 -2.7604943063006D-05
   207  2.0600000000000D+00  1.5024728129654D-07  4.0374975812266D-07
   208  2.0700000000000D+00  1.4342670468570D-06  4.4485834386214D-06
   209  2.0800000000000D+00  6.4550906768534D-07  2.2138227320595D-06
   210  2.0900000000000D+00 -1.2167200504363D-07  4.7175202887497D-07
   211  2.1000000000000D+00 -1.4505363048038D-07  5.6240829145752D-07
   212  2.1100000000000D+00  0.0000000000000D+00  0.0000000000000D+00
   213  2.1200000000000D+00  0.0000000000000D+00  0.0000000000000D+00
   214  2.1300000000000D+00  0.0000000000000D+00  0.0000000000000D+00
   215  2.1400000000000D+00  0.0000000000000D+00  0.0000000000000D+00
   216  2.1500000000000D+00  0.0000000000000D+00  0.0000000000000D+00
   217  2.1600000000000D+00  0.0000000000000D+00  0.0000000000000D+00
   218  2.1700000000000D+00  0.0000000000000D+00  0.0000000000000D+00
   219  2.1800000000000D+00  0.0000000000000D+00  0.0000000000000D+00
   220  2.1900000000000D+00  0.0000000000000D+00  0.0000000000000D+00
   221  2.2000000000000D+00  0.0000000000000D+00  0.0000000000000D+00
   222  2.2100000000000D+00  0.0000000000000D+00  0.0000000000000D+00
   223  2.2200000000000D+00  0.0000000000000D+00  0.0000000000000D+00
   224  2.2300000000000D+00  0.0000000000000D+00  0.0000000000000D+00
   225  2.2400000000000D+00  0.0000000000000D+00  0.0000000000000D+00
   226  2.2500000000000D+00  0.0000000000000D+00  0.0000000000000D+00
   227  2.2600000000000D+00  0.0000000000000D+00  0.0000000000000D+00
   228  2.2700000000000D+00  0.0000000000000D+00  0.0000000000000D+00
   229  2.2800000000000D+00  0.0000000000000D+00  0.0000000000000D+00
   230  2.2900000000000D+00  0.0000000000000D+00  0.0000000000000D+00
   231  2.3000000000000D+00  0.0000000000000D+00  0.0000000000000D+00
   232  2.3100000000000D+00  0.0000000000000D+00  0.0000000000000D+00
   233  2.3200000000000D+00  0.0000000000000D+00  0.0000000000000D+00
   234  2.3300000000000D+00  0.0000000000000D+00  0.0000000000000D+00
   235  2.3400000000000D+00  0.0000000000000D+00  0.0000000000000D+00
   236  2.3500000000000D+00  0.0000000000000D+00  0.0000000000000D+00
   237  2.3600000000000D+00  0.0000000000000D+00  0.0000000000000D+00
   238  2.3700000000000D+00  0.0000000000000D+00  0.0000000000000D+00
   239  2.3800000000000D+00  0.0000000000000D+00  0.0000000000000D+00
   240  2.3900000000000D+00  0.0000000000000D+00  0.0000000000000D+00
   241  2.4000000000000D+00  0.0000000000000D+00  0.0000000000000D+00
   242  2.4100000000000D+00  0.0000000000000D+00  0.0000000000000D+00
   243  2.4200000000000D+00  0.0000000000000D+00  0.0000000000000D+00
   244  2.4300000000000D+00  0.0000000000000D+00  0.0000000000000D+00
   245  2.4400000000000D+00  0.0000000000000D+00  0.0000000000000D+00
   246  2.4500000000000D+00  0.0000000000000D+00  0.0000000000000D+00
   247  2.4600000000000D+00  0.0000000000000D+00  0.0000000000000D+00
   248  2.4700000000000D+00  0.0000000000000D+00  0.0000000000000D+00
   249  2.4800000000000D+00  0.0000000000000D+00  0.0000000000000D+00
   250  2.4900000000000D+00  0.0000000000000D+00  0.0000000000000D+00
   251  2.5000000000000D+00  0.0000000000000D+00  0.0000000000000D+00
   252  2.5100000000000D+00  0.0000000000000D+00  0.0000000000000D+00
   253  2.5200000000000D+00  0.0000000000000D+00  0.0000000000000D+00
   254  2.5300000000000D+00  0.0000000000000D+00  0.0000000000000D+00
   255  2.5400000000000D+00  0.0000000000000D+00  0.0000000000000D+00
   256  2.5500000000000D+00  0.0000000000000D+00  0.0000000000000D+00
   257  2.5600000000000D+00  0.0000000000000D+00  0.0000000000000D+00
   258  2.5700000000000D+00  0.0000000000000D+00  0.0000000000000D+00
   259  2.5800000000000D+00  0.0000000000000D+00  0.0000000000000D+00
   260  2.5900000000000D+00  0.0000000000000D+00  0.0000000000000D+00
   261  2.6000000000000D+00  0.0000000000000D+00  0.0000000000000D+00
   262  2.6100000000000D+00  0.0000000000000D+00  0.0000000000000D+00
   263  2.6200000000000D+00  0.0000000000000D+00  0.0000000000000D+00
   264  2.6300000000000D+00  0.0000000000000D+00  0.0000000000000D+00
   265  2.6400000000000D+00  0.0000000000000D+00  0.0000000000000D+00
   266  2.6500000000000D+00  0.0000000000000D+00  0.0000000000000D+00
   267  2.6600000000000D+00  0.0000000000000D+00  0.0000000000000D+00
   268  2.6700000000000D+00  0.0000000000000D+00  0.0000000000000D+00
   269  2.6800000000000D+00  0.0000000000000D+00  0.0000000000000D+00
   270  2.6900000000000D+00  0.0000000000000D+00  0.0000000000000D+00
   271  2.7000000000000D+00  0.0000000000000D+00  0.0000000000000D+00
   272  2.7100000000000D+00  0.0000000000000D+00  0.0000000000000D+00
   273  2.7200000000000D+00  0.0000000000000D+00  0.0000000000000D+00
   274  2.7300000000000D+00  0.0000000000000D+00  0.0000000000000D+00
   275  2.7400000000000D+00  0.0000000000000D+00  0.0000000000000D+00
   276  2.7500000000000D+00  0.0000000000000D+00  0.0000000000000D+00
   277  2.7600000000000D+00  0.0000000000000D+00  0.0000000000000D+00
   278  2.7700000000000D+00  0.0000000000000D+00  0.0000000000000D+00
   279  2.7800000000000D+00  0.0000000000000D+00  0.0000000000000D+00
   280  2.7900000000000D+00  0.0000000000000D+00  0.0000000000000D+00
   281  2.8000000000000D+00  0.0000000000000D+00  0.0000000000000D+00
   282  2.8100000000000D+00  0.0000000000000D+00  0.0000000000000D+00
   283  2.8200000000000D+00  0.0000000000000D+00  0.0000000000000D+00
   284  2.8300000000000D+00  0.0000000000000D+00  0.0000000000000D+00
   285  2.8400000000000D+00  0.0000000000000D+00  0.0000000000000D+00
   286  2.8500000000000D+00  0.0000000000000D+00  0.0000000000000D+00
   287  2.8600000000000D+00  0.0000000000000D+00  0.0000000000000D+00
   288  2.8700000000000D+00  0.0000000000000D+00  0.0000000000000D+00
   289  2.8800000000000D+00  0.0000000000000D+00  0.0000000000000D+00
   290  2.8900000000000D+00  0.0000000000000D+00  0.0000000000000D+00
   291  2.9000000000000D+00  0.0000000000000D+00  0.0000000000000D+00
   292  2.9100000000000D+00  0.0000000000000D+00  0.0000000000000D+00
   293  2.9200000000000D+00  0.0000000000000D+00  0.0000000000000D+00
   294  2.9300000000000D+00  0.0000000000000D+00  0.0000000000000D+00
   295  2.9400000000000D+00  0.0000000000000D+00  0.0000000000000D+00
   296  2.9500000000000D+00  0.0000000000000D+00  0.0000000000000D+00
   297  2.9600000000000D+00  0.0000000000000D+00  0.0000000000000D+00
   298  2.9700000000000D+00  0.0000000000000D+00  0.0000000000000D+00
   299  2.9800000000000D+00  0.0000000000000D+00  0.0000000000000D+00
   300  2.9900000000000D+00  0.0000000000000D+00  0.0000000000000D+00
   301  3.0000000000000D+00  0.0000000000000D+00  0.0000000000000D+00
   302  3.0100000000000D+00  0.0000000000000D+00  0.0000000000000D+00
   303  3.0200000000000D+00  0.0000000000000D+00  0.0000000000000D+00
   304  3.0300000000000D+00  0.0000000000000D+00  0.0000000000000D+00
   305  3.0400000000000D+00  0.0000000000000D+00  0.0000000000000D+00
   306  3.0500000000000D+00  0.0000000000000D+00  0.0000000000000D+00
   307  3.0600000000000D+00  0.0000000000000D+00  0.0000000000000D+00
   308  3.0700000000000D+00  0.0000000000000D+00  0.0000000000000D+00
   309  3.0800000000000D+00  0.0000000000000D+00  0.0000000000000D+00
   310  3.0900000000000D+00  0.0000000000000D+00  0.0000000000000D+00
   311  3.1000000000000D+00  0.0000000000000D+00  0.0000000000000D+00
   312  3.1100000000000D+00  0.0000000000000D+00  0.0000000000000D+00
   313  3.1200000000000D+00  0.0000000000000D+00  0.0000000000000D+00
   314  3.1300000000000D+00  0.0000000000000D+00  0.0000000000000D+00
   315  3.1400000000000D+00  0.0000000000000D+00  0.0000000000000D+00
   316  3.1500000000000D+00  0.0000000000000D+00  0.0000000000000D+00
   317  3.1600000000000D+00  0.0000000000000D+00  0.0000000000000D+00
   318  3.1700000000000D+00  0.0000000000000D+00  0.0000000000000D+00
   319  3.1800000000000D+00  0.0000000000000D+00  0.0000000000000D+00
   320  3.1900000000000D+00  0.0000000000000D+00  0.0000000000000D+00
   321  3.2000000000000D+00  0.0000000000000D+00  0.0000000000000D+00
   322  3.2100000000000D+00  0.0000000000000D+00  0.0000000000000D+00
   323  3.2200000000000D+00  0.0000000000000D+00  0.0000000000000D+00
   324  3.2300000000000D+00  0.0000000000000D+00  0.0000000000000D+00
   325  3.2400000000000D+00  0.0000000000000D+00  0.0000000000000D+00
   326  3.2500000000000D+00  0.0000000000000D+00  0.0000000000000D+00
   327  3.2600000000000D+00  0.0000000000000D+00  0.0000000000000D+00
   328  3.2700000000000D+00  0.0000000000000D+00  0.0000000000000D+00
   329  3.2800000000000D+00  0.0000000000000D+00  0.0000000000000D+00
   330  3.2900000000000D+00  0.0000000000000D+00  0.0000000000000D+00
   331  3.3000000000000D+00  0.0000000000000D+00  0.0000000000000D+00
   332  3.3100000000000D+00  0.0000000000000D+00  0.0000000000000D+00
   333  3.3200000000000D+00  0.0000000000000D+00  0.0000000000000D+00
   334  3.3300000000000D+00  0.0000000000000D+00  0.0000000000000D+00
   335  3.3400000000000D+00  0.0000000000000D+00  0.0000000000000D+00
   336  3.3500000000000D+00  0.0000000000000D+00  0.0000000000000D+00
   337  3.3600000000000D+00  0.0000000000000D+00  0.0000000000000D+00
   338  3.3700000000000D+00  0.0000000000000D+00  0.0000000000000D+00
   339  3.3800000000000D+00  0.0000000000000D+00  0.0000000000000D+00
   340  3.3900000000000D+00  0.0000000000000D+00  0.0000000000000D+00
   341  3.4000000000000D+00  0.0000000000000D+00  0.0000000000000D+00
   342  3.4100000000000D+00  0.0000000000000D+00  0.0000000000000D+00
   343  3.4200000000000D+00  0.0000000000000D+00  0.0000000000000D+00
   344  3.4300000000000D+00  0.0000000000000D+00  0.0000000000000D+00
   345  3.4400000000000D+00  0.0000000000000D+00  0.0000000000000D+00
   346  3.4500000000000D+00  0.0000000000000D+00  0.0000000000000D+00
   347  3.4600000000000D+00  0.0000000000000D+00  0.0000000000000D+00
   348  3.4700000000000D+00  0.0000000000000D+00  0.0000000000000D+00
   349  3.4800000000000D+00  0.0000000000000D+00  0.0000000000000D+00
   350  3.4900000000000D+00  0.0000000000000D+00  0.0000000000000D+00
   351  3.5000000000000D+00  0.0000000000000D+00  0.0000000000000D+00
   352  3.5100000000000D+00  0.0000000000000D+00  0.0000000000000D+00
   353  3.5200000000000D+00  0.0000000000000D+00  0.0000000000000D+00
   354  3.5300000000000D+00  0.0000000000000D+00  0.0000000000000D+00
   355  3.5400000000000D+00  0.0000000000000D+00  0.0000000000000D+00
   356  3.5500000000000D+00  0.0000000000000D+00  0.0000000000000D+00
   357  3.5600000000000D+00  0.0000000000000D+00  0.0000000000000D+00
   358  3.5700000000000D+00  0.0000000000000D+00  0.0000000000000D+00
   359  3.5800000000000D+00  0.0000000000000D+00  0.0000000000000D+00
   360  3.5900000000000D+00  0.0000000000000D+00  0.0000000000000D+00
   361  3.6000000000000D+00  0.0000000000000D+00  0.0000000000000D+00
   362  3.6100000000000D+00  0.0000000000000D+00  0.0000000000000D+00
   363  3.6200000000000D+00  0.0000000000000D+00  0.0000000000000D+00
   364  3.6300000000000D+00  0.0000000000000D+00  0.0000000000000D+00
   365  3.6400000000000D+00  0.0000000000000D+00  0.0000000000000D+00
   366  3.6500000000000D+00  0.0000000000000D+00  0.0000000000000D+00
   367  3.6600000000000D+00  0.0000000000000D+00  0.0000000000000D+00
   368  3.6700000000000D+00  0.0000000000000D+00  0.0000000000000D+00
   369  3.6800000000000D+00  0.0000000000000D+00  0.0000000000000D+00
   370  3.6900000000000D+00  0.0000000000000D+00  0.0000000000000D+00
   371  3.7000000000000D+00  0.0000000000000D+00  0.0000000000000D+00
   372  3.7100000000000D+00  0.0000000000000D+00  0.0000000000000D+00
   373  3.7200000000000D+00  0.0000000000000D+00  0.0000000000000D+00
   374  3.7300000000000D+00  0.0000000000000D+00  0.0000000000000D+00
   375  3.7400000000000D+00  0.0000000000000D+00  0.0000000000000D+00
   376  3.7500000000000D+00  0.0000000000000D+00  0.0000000000000D+00
   377  3.7600000000000D+00  0.0000000000000D+00  0.0000000000000D+00
   378  3.7700000000000D+00  0.0000000000000D+00  0.0000000000000D+00
   379  3.7800000000000D+00  0.0000000000000D+00  0.0000000000000D+00
   380  3.7900000000000D+00  0.0000000000000D+00  0.0000000000000D+00
   381  3.8000000000000D+00  0.0000000000000D+00  0.0000000000000D+00
   382  3.8100000000000D+00  0.0000000000000D+00  0.0000000000000D+00
   383  3.8200000000000D+00  0.0000000000000D+00  0.0000000000000D+00
   384  3.8300000000000D+00  0.0000000000000D+00  0.0000000000000D+00
   385  3.8400000000000D+00  0.0000000000000D+00  0.0000000000000D+00
   386  3.8500000000000D+00  0.0000000000000D+00  0.0000000000000D+00
   387  3.8600000000000D+00  0.0000000000000D+00  0.0000000000000D+00
   388  3.8700000000000D+00  0.0000000000000D+00  0.0000000000000D+00
   389  3.8800000000000D+00  0.0000000000000D+00  0.0000000000000D+00
   390  3.8900000000000D+00  0.0000000000000D+00  0.0000000000000D+00
   391  3.9000000000000D+00  0.0000000000000D+00  0.0000000000000D+00
   392  3.9100000000000D+00  0.0000000000000D+00  0.0000000000000D+00
   393  3.9200000000000D+00  0.0000000000000D+00  0.0000000000000D+00
   394  3.9300000000000D+00  0.0000000000000D+00  0.0000000000000D+00
   395  3.9400000000000D+00  0.0000000000000D+00  0.0000000000000D+00
   396  3.9500000000000D+00  0.0000000000000D+00  0.0000000000000D+00
   397  3.9600000000000D+00  0.0000000000000D+00  0.0000000000000D+00
   398  3.9700000000000D+00  0.0000000000000D+00  0.0000000000000D+00
   399  3.9800000000000D+00  0.0000000000000D+00  0.0000000000000D+00
   400  3.9900000000000D+00  0.0000000000000D+00  0.0000000000000D+00
   401  4.0000000000000D+00  0.0000000000000D+00  0.0000000000000D+00
   402  4.0100000000000D+00  0.0000000000000D+00  0.0000000000000D+00
   403  4.0200000000000D+00  0.0000000000000D+00  0.0000000000000D+00
   404  4.0300000000000D+00  0.0000000000000D+00  0.0000000000000D+00
   405  4.0400000000000D+00  0.0000000000000D+00  0.0000000000000D+00
   406  4.0500000000000D+00  0.0000000000000D+00  0.0000000000000D+00
   407  4.0600000000000D+00  0.0000000000000D+00  0.0000000000000D+00
   408  4.0700000000000D+00  0.0000000000000D+00  0.0000000000000D+00
   409  4.0800000000000D+00  0.0000000000000D+00  0.0000000000000D+00
   410  4.0900000000000D+00  0.0000000000000D+00  0.0000000000000D+00
   411  4.1000000000000D+00  0.0000000000000D+00  0.0000000000000D+00
   412  4.1100000000000D+00  0.0000000000000D+00  0.0000000000000D+00
   413  4.1200000000000D+00  0.0000000000000D+00  0.0000000000000D+00
   414  4.1300000000000D+00  0.0000000000000D+00  0.0000000000000D+00
   415  4.1400000000000D+00  0.0000000000000D+00  0.0000000000000D+00
   416  4.1500000000000D+00  0.0000000000000D+00  0.0000000000000D+00
   417  4.1600000000000D+00  0.0000000000000D+00  0.0000000000000D+00
   418  4.1700000000000D+00  0.0000000000000D+00  0.0000000000000D+00
   419  4.1800000000000D+00  0.0000000000000D+00  0.0000000000000D+00
   420  4.1900000000000D+00  0.0000000000000D+00  0.0000000000000D+00
   421  4.2000000000000D+00  0.0000000000000D+00  0.0000000000000D+00
   422  4.2100000000000D+00  0.0000000000000D+00  0.0000000000000D+00