Ce    ONCVPSP-3.3.0  r_core=   2.00703   1.60001   1.86840   1.65831
     58.0000     12.0000      220117    zatom,zion,pspd
     8      11   3     4   600     0    pspcod,pspxc,lmax,lloc,mmax,r2well
  5.99000000  0.00000000  0.00000000    rchrg fchrg qchrg
     2     2     2     2     0    nproj
     1     1           extension_switch
   0                         7.0137431607247D+00  5.8674154922233D-01
     1  0.0000000000000D+00 -1.7692236564670D-11  1.1922816900434D-10
     2  1.0000000000000D-02  3.3587294477886D-02 -1.4112148573446D-02
     3  2.0000000000000D-02  6.7150303626321D-02 -2.8150160950082D-02
     4  3.0000000000000D-02  1.0066479431900D-01 -4.2040436530751D-02
     5  4.0000000000000D-02  1.3410663734929D-01 -5.5710441731511D-02
     6  5.0000000000000D-02  1.6745185817791D-01 -6.9089233071290D-02
     7  6.0000000000000D-02  2.0067668623879D-01 -8.2107967840178D-02
     8  7.0000000000000D-02  2.3375760234307D-01 -9.4700398348991D-02
     9  8.0000000000000D-02  2.6667138373938D-01 -1.0680334587993D-01
    10  9.0000000000000D-02  2.9939514640995D-01 -1.1835715060573D-01
    11  1.0000000000000D-01  3.3190638420839D-01 -1.2930609391971D-01
    12  1.1000000000000D-01  3.6418300447424D-01 -1.3959878982050D-01
    13  1.2000000000000D-01  3.9620335979311D-01 -1.4918854222141D-01
    14  1.3000000000000D-01  4.2794627560754D-01 -1.5803366530462D-01
    15  1.4000000000000D-01  4.5939107342356D-01 -1.6609776431174D-01
    16  1.5000000000000D-01  4.9051758940047D-01 -1.7334997445479D-01
    17  1.6000000000000D-01  5.2130618815614D-01 -1.7976515594154D-01
    18  1.7000000000000D-01  5.5173777166720D-01 -1.8532404343578D-01
    19  1.8000000000000D-01  5.8179378319230D-01 -1.9001334861350D-01
    20  1.9000000000000D-01  6.1145620619649D-01 -1.9382581482815D-01
    21  2.0000000000000D-01  6.4070755830594D-01 -1.9676022325994D-01
    22  2.1000000000000D-01  6.6953088037370D-01 -1.9882135029212D-01
    23  2.2000000000000D-01  6.9790972078864D-01 -2.0001987623075D-01
    24  2.3000000000000D-01  7.2582811521109D-01 -2.0037224585804D-01
    25  2.4000000000000D-01  7.5327056196911D-01 -1.9990048168399D-01
    26  2.5000000000000D-01  7.8022199339848D-01 -1.9863195113033D-01
    27  2.6000000000000D-01  8.0666774345699D-01 -1.9659908924499D-01
    28  2.7000000000000D-01  8.3259351198921D-01 -1.9383907890014D-01
    29  2.8000000000000D-01  8.5798532606037D-01 -1.9039349076992D-01
    30  2.9000000000000D-01  8.8282949881831D-01 -1.8630788571345D-01
    31  3.0000000000000D-01  9.0711258637870D-01 -1.8163138250051D-01
    32  3.1000000000000D-01  9.3082134326136D-01 -1.7641619411092D-01
    33  3.2000000000000D-01  9.5394267693437D-01 -1.7071713610975D-01
    34  3.3000000000000D-01  9.7646360204649D-01 -1.6459111084818D-01
    35  3.4000000000000D-01  9.9837119494799D-01 -1.5809657146179D-01
    36  3.5000000000000D-01  1.0196525491137D+00 -1.5129296983103D-01
    37  3.6000000000000D-01  1.0402947320916D+00 -1.4424019283318D-01
    38  3.7000000000000D-01  1.0602847446030D+00 -1.3699799134693D-01
    39  3.8000000000000D-01  1.0796094824180D+00 -1.2962540657077D-01
    40  3.9000000000000D-01  1.0982557016223D+00 -1.2218019828145D-01
    41  4.0000000000000D-01  1.1162099878758D+00 -1.1471827968950D-01
    42  4.1000000000000D-01  1.1334587302442D+00 -1.0729316354345D-01
    43  4.2000000000000D-01  1.1499881001588D+00 -9.9955424092843D-02
    44  4.3000000000000D-01  1.1657840360258D+00 -9.2752179441974D-02
    45  4.4000000000000D-01  1.1808322339711D+00 -8.5726598712082D-02
    46  4.5000000000000D-01  1.1951181451590D+00 -7.8917438279108D-02
    47  4.6000000000000D-01  1.2086269800789D+00 -7.2358611168401D-02
    48  4.7000000000000D-01  1.2213437201356D+00 -6.6078793467103D-02
    49  4.8000000000000D-01  1.2332531368220D+00 -6.0101071361647D-02
    50  4.9000000000000D-01  1.2443398186884D+00 -5.4442632122207D-02
    51  5.0000000000000D-01  1.2545882062557D+00 -4.9114502040535D-02
    52  5.1000000000000D-01  1.2639826349486D+00 -4.4121333984340D-02
    53  5.2000000000000D-01  1.2725073860497D+00 -3.9461246862829D-02
    54  5.3000000000000D-01  1.2801467456005D+00 -3.5125718905766D-02
    55  5.4000000000000D-01  1.2868850710956D+00 -3.1099536246828D-02
    56  5.5000000000000D-01  1.2927068657380D+00 -2.7360797873560D-02
    57  5.6000000000000D-01  1.2975968599419D+00 -2.3880977562336D-02
    58  5.7000000000000D-01  1.3015400996924D+00 -2.0625042966108D-02
    59  5.8000000000000D-01  1.3045220412890D+00 -1.7551631560371D-02
    60  5.9000000000000D-01  1.3065286519277D+00 -1.4613282693876D-02
    61  6.0000000000000D-01  1.3075465154973D+00 -1.1756724526136D-02
    62  6.1000000000000D-01  1.3075629428983D+00 -8.9232141804568D-03
    63  6.2000000000000D-01  1.3065660861251D+00 -6.0489289921789D-03
    64  6.3000000000000D-01  1.3045450552874D+00 -3.0654062986584D-03
    65  6.4000000000000D-01  1.3014900376956D+00  9.9971199279170D-05
    66  6.5000000000000D-01  1.2973924180805D+00  3.5234478717589D-03
    67  6.6000000000000D-01  1.2922448989771D+00  7.2843291274184D-03
    68  6.7000000000000D-01  1.2860416202657D+00  1.1464380994961D-02
    69  6.8000000000000D-01  1.2787782768394D+00  1.6147199710574D-02
    70  6.9000000000000D-01  1.2704522333446D+00  2.1417555978241D-02
    71  7.0000000000000D-01  1.2610626349370D+00  2.7360718807224D-02
    72  7.1000000000000D-01  1.2506105129939D+00  3.4061764028659D-02
    73  7.2000000000000D-01  1.2390988847360D+00  4.1604872744957D-02
    74  7.3000000000000D-01  1.2265328457317D+00  5.0072625075102D-02
    75  7.4000000000000D-01  1.2129196542919D+00  5.9545294618369D-02
    76  7.5000000000000D-01  1.1982688068019D+00  7.0100149074109D-02
    77  7.6000000000000D-01  1.1825921030924D+00  8.1810762417163D-02
    78  7.7000000000000D-01  1.1659037010141D+00  9.4746343945820D-02
    79  7.8000000000000D-01  1.1482201594523D+00  1.0897108938438D-01
    80  7.9000000000000D-01  1.1295604691012D+00  1.2454355904183D-01
    81  8.0000000000000D-01  1.1099460704099D+00  1.4151608779966D-01
    82  8.1000000000000D-01  1.0894008582108D+00  1.5993423142954D-01
    83  8.2000000000000D-01  1.0679511726480D+00  1.7983625342606D-01
    84  8.3000000000000D-01  1.0456257761415D+00  2.0125265618538D-01
    85  8.4000000000000D-01  1.0224558162374D+00  2.2420575996931D-01
    86  8.5000000000000D-01  9.9847477432499D-01  2.4870933267194D-01
    87  8.6000000000000D-01  9.7371840032594D-01  2.7476827295428D-01
    88  8.7000000000000D-01  9.4822463359397D-01  3.0237834883858D-01
    89  8.8000000000000D-01  9.2203351039412D-01  3.3152599336145D-01
    90  8.9000000000000D-01  8.9518705846241D-01  3.6218815838099D-01
    91  9.0000000000000D-01  8.6772917927596D-01  3.9433222712057D-01
    92  9.1000000000000D-01  8.3970551878964D-01  4.2791598552084D-01
    93  9.2000000000000D-01  8.1116332751615D-01  4.6288765196487D-01
    94  9.3000000000000D-01  7.8215131094077D-01  4.9918596444633D-01
    95  9.4000000000000D-01  7.5271947136834D-01  5.3674032377453D-01
    96  9.5000000000000D-01  7.2291894239641D-01  5.7547099095869D-01
    97  9.6000000000000D-01  6.9280181729382D-01  6.1528933649220D-01
    98  9.7000000000000D-01  6.6242097263676D-01  6.5609813887404D-01
    99  9.8000000000000D-01  6.3182988861282D-01  6.9779192936277D-01
   100  9.9000000000000D-01  6.0108246744688D-01  7.4025737966332D-01
   101  1.0000000000000D+00  5.7023285142923D-01  7.8337372901067D-01
   102  1.0100000000000D+00  5.3933524203624D-01  8.2701324692438D-01
   103  1.0200000000000D+00  5.0844372162409D-01  8.7104172778896D-01
   104  1.0300000000000D+00  4.7761207914796D-01  9.1531901335564D-01
   105  1.0400000000000D+00  4.4689364131192D-01  9.5969953926675D-01
   106  1.0500000000000D+00  4.1634111048355D-01  1.0040329017852D+00
   107  1.0600000000000D+00  3.8600641062453D-01  1.0481644410455D+00
   108  1.0700000000000D+00  3.5594054237824D-01  1.0919358373552D+00
   109  1.0800000000000D+00  3.2619344832560D-01  1.1351857173585D+00
   110  1.0900000000000D+00  2.9681388928003D-01  1.1777502672025D+00
   111  1.1000000000000D+00  2.6784933231393D-01  1.2194638502776D+00
   112  1.1100000000000D+00  2.3934585105657D-01  1.2601596274894D+00
   113  1.1200000000000D+00  2.1134803857879D-01  1.2996701785904D+00
   114  1.1300000000000D+00  1.8389893298667D-01  1.3378281236064D+00
   115  1.1400000000000D+00  1.5703995560960D-01  1.3744667440060D+00
   116  1.1500000000000D+00  1.3081086147096D-01  1.4094206037792D+00
   117  1.1600000000000D+00  1.0524970146894D-01  1.4425261712641D+00
   118  1.1700000000000D+00  8.0392795459580D-02  1.4736224431687D+00
   119  1.1800000000000D+00  5.6274715179966D-02  1.5025515728520D+00
   120  1.1900000000000D+00  3.2928275789310D-02  1.5291595053318D+00
   121  1.2000000000000D+00  1.0384534481101D-02  1.5532966222439D+00
   122  1.2100000000000D+00 -1.1327205546399D-02  1.5748184003080D+00
   123  1.2200000000000D+00 -3.2179387659937D-02  1.5935860872034D+00
   124  1.2300000000000D+00 -5.2146192985296D-02  1.6094673991260D+00
   125  1.2400000000000D+00 -7.1203532504683D-02  1.6223372444940D+00
   126  1.2500000000000D+00 -8.9329042393646D-02  1.6320784781050D+00
   127  1.2600000000000D+00 -1.0650208504788D-01  1.6385826902681D+00
   128  1.2700000000000D+00 -1.2270375833715D-01  1.6417510349227D+00
   129  1.2800000000000D+00 -1.3791691550422D-01  1.6414950999354D+00
   130  1.2900000000000D+00 -1.5212619824875D-01  1.6377378231173D+00
   131  1.3000000000000D+00 -1.6531808529315D-01  1.6304144553985D+00
   132  1.3100000000000D+00 -1.7748095846682D-01  1.6194735713512D+00
   133  1.3200000000000D+00 -1.8860518850832D-01  1.6048781277457D+00
   134  1.3300000000000D+00 -1.9868324191691D-01  1.5866065659896D+00
   135  1.3400000000000D+00 -2.0770981003725D-01  1.5646539538093D+00
   136  1.3500000000000D+00 -2.1568196152540D-01  1.5390331609240D+00
   137  1.3600000000000D+00 -2.2259931759162D-01  1.5097760550493D+00
   138  1.3700000000000D+00 -2.2846425008173D-01  1.4769347078173D+00
   139  1.3800000000000D+00 -2.3328210115675D-01  1.4405825937301D+00
   140  1.3900000000000D+00 -2.3706142104886D-01  1.4008157551726D+00
   141  1.4000000000000D+00 -2.3981422291407D-01  1.3577539177462D+00
   142  1.4100000000000D+00 -2.4155624804552D-01  1.3115415143277D+00
   143  1.4200000000000D+00 -2.4230723686683D-01  1.2623485861426D+00
   144  1.4300000000000D+00 -2.4209119965372D-01  1.2103715221776D+00
   145  1.4400000000000D+00 -2.4093667461081D-01  1.1558335711585D+00
   146  1.4500000000000D+00 -2.3887696862147D-01  1.0989850933173D+00
   147  1.4600000000000D+00 -2.3595036232644D-01  1.0401034603705D+00
   148  1.4700000000000D+00 -2.3220026934563D-01  9.7949254732442D-01
   149  1.4800000000000D+00 -2.2767533227105D-01  9.1748172867464D-01
   150  1.4900000000000D+00 -2.2242943269738D-01  8.5442426923966D-01
   151  1.5000000000000D+00 -2.1652160213064D-01  7.9069504000360D-01
   152  1.5100000000000D+00 -2.1001579613276D-01  7.2668738627079D-01
   153  1.5200000000000D+00 -2.0298052010523D-01  6.6280908501497D-01
   154  1.5300000000000D+00 -1.9548825977628D-01  5.9947717969369D-01
   155  1.5400000000000D+00 -1.8761469479606D-01  5.3711158732876D-01
   156  1.5500000000000D+00 -1.7943763465255D-01  4.7612716053711D-01
   157  1.5600000000000D+00 -1.7103573207592D-01  4.1692472888068D-01
   158  1.5700000000000D+00 -1.6248653265580D-01  3.5987804732093D-01
   159  1.5800000000000D+00 -1.5386512369148D-01  3.0532568499701D-01
   160  1.5900000000000D+00 -1.4524078729367D-01  2.5355026056905D-01
   161  1.6000000000000D+00 -1.3667259965929D-01  2.0474954722859D-01
   162  1.6100000000000D+00 -1.2821036908043D-01  1.5905010331037D-01
   163  1.6200000000000D+00 -1.1989471458327D-01  1.1651549567384D-01
   164  1.6300000000000D+00 -1.1176025809774D-01  7.7171417769559D-02
   165  1.6400000000000D+00 -1.0383959471382D-01  4.1037564375328D-02
   166  1.6500000000000D+00 -9.6161752365922D-02  8.1163219793247D-03
   167  1.6600000000000D+00 -8.8751880341067D-02 -2.1610061958698D-02
   168  1.6700000000000D+00 -8.1631739361721D-02 -4.8175047628588D-02
   169  1.6800000000000D+00 -7.4819516767281D-02 -7.1629203260376D-02
   170  1.6900000000000D+00 -6.8329963332188D-02 -9.2039064635840D-02
   171  1.7000000000000D+00 -6.2174455955555D-02 -1.0948664924176D-01
   172  1.7100000000000D+00 -5.6361099898460D-02 -1.2406872941428D-01
   173  1.7200000000000D+00 -5.0894851044173D-02 -1.3589601087984D-01
   174  1.7300000000000D+00 -4.5777659020712D-02 -1.4509221283536D-01
   175  1.7400000000000D+00 -4.1008627997734D-02 -1.5179306556759D-01
   176  1.7500000000000D+00 -3.6584195828148D-02 -1.5614522264567D-01
   177  1.7600000000000D+00 -3.2498328010026D-02 -1.5830510526567D-01
   178  1.7700000000000D+00 -2.8742726937700D-02 -1.5843767684712D-01
   179  1.7800000000000D+00 -2.5307052780170D-02 -1.5671516603568D-01
   180  1.7900000000000D+00 -2.2179156026520D-02 -1.5331573839803D-01
   181  1.8000000000000D+00 -1.9345318340761D-02 -1.4842213337470D-01
   182  1.8100000000000D+00 -1.6790500944795D-02 -1.4222027084393D-01
   183  1.8200000000000D+00 -1.4498597878524D-02 -1.3489784034989D-01
   184  1.8300000000000D+00 -1.2452692464148D-02 -1.2664288168896D-01
   185  1.8400000000000D+00 -1.0635314963905D-02 -1.1764236679791D-01
   186  1.8500000000000D+00 -9.0286992349834D-03 -1.0808079408640D-01
   187  1.8600000000000D+00 -7.6150367187999D-03 -9.8138803494031D-02
   188  1.8700000000000D+00 -6.3767255851528D-03 -8.7991823215575D-02
   189  1.8800000000000D+00 -5.2966125907852D-03 -7.7808760513015D-02
   190  1.8900000000000D+00 -4.3582268234575D-03 -6.7750740560389D-02
   191  1.9000000000000D+00 -3.5460027620225D-03 -5.7969905909989D-02
   192  1.9100000000000D+00 -2.8454934292806D-03 -4.8608272560865D-02
   193  1.9200000000000D+00 -2.2435656332188D-03 -3.9796684154666D-02
   194  1.9300000000000D+00 -1.7285814540983D-03 -3.1653842368328D-02
   195  1.9400000000000D+00 -1.2907105980161D-03 -2.4288348855986D-02
   196  1.9500000000000D+00 -9.2168654737105D-04 -1.7790121851110D-02
   197  1.9600000000000D+00 -6.1464018511171D-04 -1.2223361770321D-02
   198  1.9700000000000D+00 -3.6493720366503D-04 -7.6299404941580D-03
   199  1.9800000000000D+00 -1.7362719062156D-04 -4.1491989666317D-03
   200  1.9900000000000D+00 -4.0972768856295D-05 -1.8581789065207D-03
   201  2.0000000000000D+00  3.3574990719852D-05 -5.9807881388599D-04
   202  2.0100000000000D+00  5.3787436217283D-05 -6.3132418579962D-05
   203  2.0200000000000D+00  3.3433748193880D-05  6.1241742229064D-05
   204  2.0300000000000D+00  2.9265728433674D-06  8.4173273199304D-06
   205  2.0400000000000D+00 -8.3848224961091D-06 -2.8979482634026D-05
   206  2.0500000000000D+00 -4.7620583092474D-06 -1.8434412331490D-05
   207  2.0600000000000D+00  1.1185802820755D-06  2.7673002971957D-06
   208  2.0700000000000D+00  1.6643044365567D-06  4.5055069741910D-06
   209  2.0800000000000D+00  3.0799815278875D-08  8.8978299263552D-08
   210  2.0900000000000D+00 -1.4822047184973D-07  4.6672228494627D-07
   211  2.1000000000000D+00 -8.6680540751927D-08  2.7294299859694D-07
   212  2.1100000000000D+00  0.0000000000000D+00  0.0000000000000D+00
   213  2.1200000000000D+00  0.0000000000000D+00  0.0000000000000D+00
   214  2.1300000000000D+00  0.0000000000000D+00  0.0000000000000D+00
   215  2.1400000000000D+00  0.0000000000000D+00  0.0000000000000D+00
   216  2.1500000000000D+00  0.0000000000000D+00  0.0000000000000D+00
   217  2.1600000000000D+00  0.0000000000000D+00  0.0000000000000D+00
   218  2.1700000000000D+00  0.0000000000000D+00  0.0000000000000D+00
   219  2.1800000000000D+00  0.0000000000000D+00  0.0000000000000D+00
   220  2.1900000000000D+00  0.0000000000000D+00  0.0000000000000D+00
   221  2.2000000000000D+00  0.0000000000000D+00  0.0000000000000D+00
   222  2.2100000000000D+00  0.0000000000000D+00  0.0000000000000D+00
   223  2.2200000000000D+00  0.0000000000000D+00  0.0000000000000D+00
   224  2.2300000000000D+00  0.0000000000000D+00  0.0000000000000D+00
   225  2.2400000000000D+00  0.0000000000000D+00  0.0000000000000D+00
   226  2.2500000000000D+00  0.0000000000000D+00  0.0000000000000D+00
   227  2.2600000000000D+00  0.0000000000000D+00  0.0000000000000D+00
   228  2.2700000000000D+00  0.0000000000000D+00  0.0000000000000D+00
   229  2.2800000000000D+00  0.0000000000000D+00  0.0000000000000D+00
   230  2.2900000000000D+00  0.0000000000000D+00  0.0000000000000D+00
   231  2.3000000000000D+00  0.0000000000000D+00  0.0000000000000D+00
   232  2.3100000000000D+00  0.0000000000000D+00  0.0000000000000D+00
   233  2.3200000000000D+00  0.0000000000000D+00  0.0000000000000D+00
   234  2.3300000000000D+00  0.0000000000000D+00  0.0000000000000D+00
   235  2.3400000000000D+00  0.0000000000000D+00  0.0000000000000D+00
   236  2.3500000000000D+00  0.0000000000000D+00  0.0000000000000D+00
   237  2.3600000000000D+00  0.0000000000000D+00  0.0000000000000D+00
   238  2.3700000000000D+00  0.0000000000000D+00  0.0000000000000D+00
   239  2.3800000000000D+00  0.0000000000000D+00  0.0000000000000D+00
   240  2.3900000000000D+00  0.0000000000000D+00  0.0000000000000D+00
   241  2.4000000000000D+00  0.0000000000000D+00  0.0000000000000D+00
   242  2.4100000000000D+00  0.0000000000000D+00  0.0000000000000D+00
   243  2.4200000000000D+00  0.0000000000000D+00  0.0000000000000D+00
   244  2.4300000000000D+00  0.0000000000000D+00  0.0000000000000D+00
   245  2.4400000000000D+00  0.0000000000000D+00  0.0000000000000D+00
   246  2.4500000000000D+00  0.0000000000000D+00  0.0000000000000D+00
   247  2.4600000000000D+00  0.0000000000000D+00  0.0000000000000D+00
   248  2.4700000000000D+00  0.0000000000000D+00  0.0000000000000D+00
   249  2.4800000000000D+00  0.0000000000000D+00  0.0000000000000D+00
   250  2.4900000000000D+00  0.0000000000000D+00  0.0000000000000D+00
   251  2.5000000000000D+00  0.0000000000000D+00  0.0000000000000D+00
   252  2.5100000000000D+00  0.0000000000000D+00  0.0000000000000D+00
   253  2.5200000000000D+00  0.0000000000000D+00  0.0000000000000D+00
   254  2.5300000000000D+00  0.0000000000000D+00  0.0000000000000D+00
   255  2.5400000000000D+00  0.0000000000000D+00  0.0000000000000D+00
   256  2.5500000000000D+00  0.0000000000000D+00  0.0000000000000D+00
   257  2.5600000000000D+00  0.0000000000000D+00  0.0000000000000D+00
   258  2.5700000000000D+00  0.0000000000000D+00  0.0000000000000D+00
   259  2.5800000000000D+00  0.0000000000000D+00  0.0000000000000D+00
   260  2.5900000000000D+00  0.0000000000000D+00  0.0000000000000D+00
   261  2.6000000000000D+00  0.0000000000000D+00  0.0000000000000D+00
   262  2.6100000000000D+00  0.0000000000000D+00  0.0000000000000D+00
   263  2.6200000000000D+00  0.0000000000000D+00  0.0000000000000D+00
   264  2.6300000000000D+00  0.0000000000000D+00  0.0000000000000D+00
   265  2.6400000000000D+00  0.0000000000000D+00  0.0000000000000D+00
   266  2.6500000000000D+00  0.0000000000000D+00  0.0000000000000D+00
   267  2.6600000000000D+00  0.0000000000000D+00  0.0000000000000D+00
   268  2.6700000000000D+00  0.0000000000000D+00  0.0000000000000D+00
   269  2.6800000000000D+00  0.0000000000000D+00  0.0000000000000D+00
   270  2.6900000000000D+00  0.0000000000000D+00  0.0000000000000D+00
   271  2.7000000000000D+00  0.0000000000000D+00  0.0000000000000D+00
   272  2.7100000000000D+00  0.0000000000000D+00  0.0000000000000D+00
   273  2.7200000000000D+00  0.0000000000000D+00  0.0000000000000D+00
   274  2.7300000000000D+00  0.0000000000000D+00  0.0000000000000D+00
   275  2.7400000000000D+00  0.0000000000000D+00  0.0000000000000D+00
   276  2.7500000000000D+00  0.0000000000000D+00  0.0000000000000D+00
   277  2.7600000000000D+00  0.0000000000000D+00  0.0000000000000D+00
   278  2.7700000000000D+00  0.0000000000000D+00  0.0000000000000D+00
   279  2.7800000000000D+00  0.0000000000000D+00  0.0000000000000D+00
   280  2.7900000000000D+00  0.0000000000000D+00  0.0000000000000D+00
   281  2.8000000000000D+00  0.0000000000000D+00  0.0000000000000D+00
   282  2.8100000000000D+00  0.0000000000000D+00  0.0000000000000D+00
   283  2.8200000000000D+00  0.0000000000000D+00  0.0000000000000D+00
   284  2.8300000000000D+00  0.0000000000000D+00  0.0000000000000D+00
   285  2.8400000000000D+00  0.0000000000000D+00  0.0000000000000D+00
   286  2.8500000000000D+00  0.0000000000000D+00  0.0000000000000D+00
   287  2.8600000000000D+00  0.0000000000000D+00  0.0000000000000D+00
   288  2.8700000000000D+00  0.0000000000000D+00  0.0000000000000D+00
   289  2.8800000000000D+00  0.0000000000000D+00  0.0000000000000D+00
   290  2.8900000000000D+00  0.0000000000000D+00  0.0000000000000D+00
   291  2.9000000000000D+00  0.0000000000000D+00  0.0000000000000D+00
   292  2.9100000000000D+00  0.0000000000000D+00  0.0000000000000D+00
   293  2.9200000000000D+00  0.0000000000000D+00  0.0000000000000D+00
   294  2.9300000000000D+00  0.0000000000000D+00  0.0000000000000D+00
   295  2.9400000000000D+00  0.0000000000000D+00  0.0000000000000D+00
   296  2.9500000000000D+00  0.0000000000000D+00  0.0000000000000D+00
   297  2.9600000000000D+00  0.0000000000000D+00  0.0000000000000D+00
   298  2.9700000000000D+00  0.0000000000000D+00  0.0000000000000D+00
   299  2.9800000000000D+00  0.0000000000000D+00  0.0000000000000D+00
   300  2.9900000000000D+00  0.0000000000000D+00  0.0000000000000D+00
   301  3.0000000000000D+00  0.0000000000000D+00  0.0000000000000D+00
   302  3.0100000000000D+00  0.0000000000000D+00  0.0000000000000D+00
   303  3.0200000000000D+00  0.0000000000000D+00  0.0000000000000D+00
   304  3.0300000000000D+00  0.0000000000000D+00  0.0000000000000D+00
   305  3.0400000000000D+00  0.0000000000000D+00  0.0000000000000D+00
   306  3.0500000000000D+00  0.0000000000000D+00  0.0000000000000D+00
   307  3.0600000000000D+00  0.0000000000000D+00  0.0000000000000D+00
   308  3.0700000000000D+00  0.0000000000000D+00  0.0000000000000D+00
   309  3.0800000000000D+00  0.0000000000000D+00  0.0000000000000D+00
   310  3.0900000000000D+00  0.0000000000000D+00  0.0000000000000D+00
   311  3.1000000000000D+00  0.0000000000000D+00  0.0000000000000D+00
   312  3.1100000000000D+00  0.0000000000000D+00  0.0000000000000D+00
   313  3.1200000000000D+00  0.0000000000000D+00  0.0000000000000D+00
   314  3.1300000000000D+00  0.0000000000000D+00  0.0000000000000D+00
   315  3.1400000000000D+00  0.0000000000000D+00  0.0000000000000D+00
   316  3.1500000000000D+00  0.0000000000000D+00  0.0000000000000D+00
   317  3.1600000000000D+00  0.0000000000000D+00  0.0000000000000D+00
   318  3.1700000000000D+00  0.0000000000000D+00  0.0000000000000D+00
   319  3.1800000000000D+00  0.0000000000000D+00  0.0000000000000D+00
   320  3.1900000000000D+00  0.0000000000000D+00  0.0000000000000D+00
   321  3.2000000000000D+00  0.0000000000000D+00  0.0000000000000D+00
   322  3.2100000000000D+00  0.0000000000000D+00  0.0000000000000D+00
   323  3.2200000000000D+00  0.0000000000000D+00  0.0000000000000D+00
   324  3.2300000000000D+00  0.0000000000000D+00  0.0000000000000D+00
   325  3.2400000000000D+00  0.0000000000000D+00  0.0000000000000D+00
   326  3.2500000000000D+00  0.0000000000000D+00  0.0000000000000D+00
   327  3.2600000000000D+00  0.0000000000000D+00  0.0000000000000D+00
   328  3.2700000000000D+00  0.0000000000000D+00  0.0000000000000D+00
   329  3.2800000000000D+00  0.0000000000000D+00  0.0000000000000D+00
   330  3.2900000000000D+00  0.0000000000000D+00  0.0000000000000D+00
   331  3.3000000000000D+00  0.0000000000000D+00  0.0000000000000D+00
   332  3.3100000000000D+00  0.0000000000000D+00  0.0000000000000D+00
   333  3.3200000000000D+00  0.0000000000000D+00  0.0000000000000D+00
   334  3.3300000000000D+00  0.0000000000000D+00  0.0000000000000D+00
   335  3.3400000000000D+00  0.0000000000000D+00  0.0000000000000D+00
   336  3.3500000000000D+00  0.0000000000000D+00  0.0000000000000D+00
   337  3.3600000000000D+00  0.0000000000000D+00  0.0000000000000D+00
   338  3.3700000000000D+00  0.0000000000000D+00  0.0000000000000D+00
   339  3.3800000000000D+00  0.0000000000000D+00  0.0000000000000D+00
   340  3.3900000000000D+00  0.0000000000000D+00  0.0000000000000D+00
   341  3.4000000000000D+00  0.0000000000000D+00  0.0000000000000D+00
   342  3.4100000000000D+00  0.0000000000000D+00  0.0000000000000D+00
   343  3.4200000000000D+00  0.0000000000000D+00  0.0000000000000D+00
   344  3.4300000000000D+00  0.0000000000000D+00  0.0000000000000D+00
   345  3.4400000000000D+00  0.0000000000000D+00  0.0000000000000D+00
   346  3.4500000000000D+00  0.0000000000000D+00  0.0000000000000D+00
   347  3.4600000000000D+00  0.0000000000000D+00  0.0000000000000D+00
   348  3.4700000000000D+00  0.0000000000000D+00  0.0000000000000D+00
   349  3.4800000000000D+00  0.0000000000000D+00  0.0000000000000D+00
   350  3.4900000000000D+00  0.0000000000000D+00  0.0000000000000D+00
   351  3.5000000000000D+00  0.0000000000000D+00  0.0000000000000D+00
   352  3.5100000000000D+00  0.0000000000000D+00  0.0000000000000D+00
   353  3.5200000000000D+00  0.0000000000000D+00  0.0000000000000D+00
   354  3.5300000000000D+00  0.0000000000000D+00  0.0000000000000D+00
   355  3.5400000000000D+00  0.0000000000000D+00  0.0000000000000D+00
   356  3.5500000000000D+00  0.0000000000000D+00  0.0000000000000D+00
   357  3.5600000000000D+00  0.0000000000000D+00  0.0000000000000D+00
   358  3.5700000000000D+00  0.0000000000000D+00  0.0000000000000D+00
   359  3.5800000000000D+00  0.0000000000000D+00  0.0000000000000D+00
   360  3.5900000000000D+00  0.0000000000000D+00  0.0000000000000D+00
   361  3.6000000000000D+00  0.0000000000000D+00  0.0000000000000D+00
   362  3.6100000000000D+00  0.0000000000000D+00  0.0000000000000D+00
   363  3.6200000000000D+00  0.0000000000000D+00  0.0000000000000D+00
   364  3.6300000000000D+00  0.0000000000000D+00  0.0000000000000D+00
   365  3.6400000000000D+00  0.0000000000000D+00  0.0000000000000D+00
   366  3.6500000000000D+00  0.0000000000000D+00  0.0000000000000D+00
   367  3.6600000000000D+00  0.0000000000000D+00  0.0000000000000D+00
   368  3.6700000000000D+00  0.0000000000000D+00  0.0000000000000D+00
   369  3.6800000000000D+00  0.0000000000000D+00  0.0000000000000D+00
   370  3.6900000000000D+00  0.0000000000000D+00  0.0000000000000D+00
   371  3.7000000000000D+00  0.0000000000000D+00  0.0000000000000D+00
   372  3.7100000000000D+00  0.0000000000000D+00  0.0000000000000D+00
   373  3.7200000000000D+00  0.0000000000000D+00  0.0000000000000D+00
   374  3.7300000000000D+00  0.0000000000000D+00  0.0000000000000D+00
   375  3.7400000000000D+00  0.0000000000000D+00  0.0000000000000D+00
   376  3.7500000000000D+00  0.0000000000000D+00  0.0000000000000D+00
   377  3.7600000000000D+00  0.0000000000000D+00  0.0000000000000D+00
   378  3.7700000000000D+00  0.0000000000000D+00  0.0000000000000D+00
   379  3.7800000000000D+00  0.0000000000000D+00  0.0000000000000D+00
   380  3.7900000000000D+00  0.0000000000000D+00  0.0000000000000D+00
   381  3.8000000000000D+00  0.0000000000000D+00  0.0000000000000D+00
   382  3.8100000000000D+00  0.0000000000000D+00  0.0000000000000D+00
   383  3.8200000000000D+00  0.0000000000000D+00  0.0000000000000D+00
   384  3.8300000000000D+00  0.0000000000000D+00  0.0000000000000D+00
   385  3.8400000000000D+00  0.0000000000000D+00  0.0000000000000D+00
   386  3.8500000000000D+00  0.0000000000000D+00  0.0000000000000D+00
   387  3.8600000000000D+00  0.0000000000000D+00  0.0000000000000D+00
   388  3.8700000000000D+00  0.0000000000000D+00  0.0000000000000D+00
   389  3.8800000000000D+00  0.0000000000000D+00  0.0000000000000D+00
   390  3.8900000000000D+00  0.0000000000000D+00  0.0000000000000D+00
   391  3.9000000000000D+00  0.0000000000000D+00  0.0000000000000D+00
   392  3.9100000000000D+00  0.0000000000000D+00  0.0000000000000D+00
   393  3.9200000000000D+00  0.0000000000000D+00  0.0000000000000D+00
   394  3.9300000000000D+00  0.0000000000000D+00  0.0000000000000D+00
   395  3.9400000000000D+00  0.0000000000000D+00  0.0000000000000D+00
   396  3.9500000000000D+00  0.0000000000000D+00  0.0000000000000D+00
   397  3.9600000000000D+00  0.0000000000000D+00  0.0000000000000D+00
   398  3.9700000000000D+00  0.0000000000000D+00  0.0000000000000D+00
   399  3.9800000000000D+00  0.0000000000000D+00  0.0000000000000D+00
   400  3.9900000000000D+00  0.0000000000000D+00  0.0000000000000D+00
   401  4.0000000000000D+00  0.0000000000000D+00  0.0000000000000D+00
   402  4.0100000000000D+00  0.0000000000000D+00  0.0000000000000D+00
   403  4.0200000000000D+00  0.0000000000000D+00  0.0000000000000D+00
   404  4.0300000000000D+00  0.0000000000000D+00  0.0000000000000D+00
   405  4.0400000000000D+00  0.0000000000000D+00  0.0000000000000D+00
   406  4.0500000000000D+00  0.0000000000000D+00  0.0000000000000D+00
   407  4.0600000000000D+00  0.0000000000000D+00  0.0000000000000D+00
   408  4.0700000000000D+00  0.0000000000000D+00  0.0000000000000D+00
   409  4.0800000000000D+00  0.0000000000000D+00  0.0000000000000D+00
   410  4.0900000000000D+00  0.0000000000000D+00  0.0000000000000D+00
   411  4.1000000000000D+00  0.0000000000000D+00  0.0000000000000D+00
   412  4.1100000000000D+00  0.0000000000000D+00  0.0000000000000D+00
   413  4.1200000000000D+00  0.0000000000000D+00  0.0000000000000D+00
   414  4.1300000000000D+00  0.0000000000000D+00  0.0000000000000D+00
   415  4.1400000000000D+00  0.0000000000000D+00  0.0000000000000D+00
   416  4.1500000000000D+00  0.0000000000000D+00  0.0000000000000D+00
   417  4.1600000000000D+00  0.0000000000000D+00  0.0000000000000D+00
   418  4.1700000000000D+00  0.0000000000000D+00  0.0000000000000D+00
   419  4.1800000000000D+00  0.0000000000000D+00  0.0000000000000D+00
   420  4.1900000000000D+00  0.0000000000000D+00  0.0000000000000D+00
   421  4.2000000000000D+00  0.0000000000000D+00  0.0000000000000D+00
   422  4.2100000000000D+00  0.0000000000000D+00  0.0000000000000D+00