Tm    ONCVPSP-3.3.0  r_core=   1.81224   1.51533   1.66706   1.70731
     69.0000     23.0000      220117    zatom,zion,pspd
     8      11   3     4   600     0    pspcod,pspxc,lmax,lloc,mmax,r2well
  5.99000000  0.00000000  0.00000000    rchrg fchrg qchrg
     2     2     2     2     0    nproj
     1     1           extension_switch
   0                         9.8743500679024D+00  8.9844120519166D-01
     1  0.0000000000000D+00 -1.1631406948709D-10  4.4945852595291D-10
     2  1.0000000000000D-02  5.7977867238437D-02 -2.4792714962099D-02
     3  2.0000000000000D-02  1.1584489318989D-01 -4.9393447383173D-02
     4  3.0000000000000D-02  1.7349068136956D-01 -7.3611689607989D-02
     5  4.0000000000000D-02  2.3080572159006D-01 -9.7259870826120D-02
     6  5.0000000000000D-02  2.8768182487226D-01 -1.2015479329227D-01
     7  6.0000000000000D-02  3.4401254855391D-01 -1.4211903022460D-01
     8  7.0000000000000D-02  3.9969360846602D-01 -1.6298227313855D-01
     9  8.0000000000000D-02  4.5462327516366D-01 -1.8258261682317D-01
    10  9.0000000000000D-02  5.0870275134120D-01 -2.0076777072218D-01
    11  1.0000000000000D-01  5.6183652773168D-01 -2.1739618613748D-01
    12  1.1000000000000D-01  6.1393271498383D-01 -2.3233808942359D-01
    13  1.2000000000000D-01  6.6490334922682D-01 -2.4547641218094D-01
    14  1.3000000000000D-01  7.1466466927049D-01 -2.5670761037685D-01
    15  1.4000000000000D-01  7.6313736364481D-01 -2.6594236531789D-01
    16  1.5000000000000D-01  8.1024678595485D-01 -2.7310616045706D-01
    17  1.6000000000000D-01  8.5592313731429D-01 -2.7813972913541D-01
    18  1.7000000000000D-01  9.0010161491821D-01 -2.8099936952021D-01
    19  1.8000000000000D-01  9.4272252612284D-01 -2.8165712420055D-01
    20  1.9000000000000D-01  9.8373136771216D-01 -2.8010082312602D-01
    21  2.0000000000000D-01  1.0230788703473D+00 -2.7633398981422D-01
    22  2.1000000000000D-01  1.0607210085101D+00 -2.7037561199655D-01
    23  2.2000000000000D-01  1.0966189765649D+00 -2.6225977910942D-01
    24  2.3000000000000D-01  1.1307391318713D+00 -2.5203519025659D-01
    25  2.4000000000000D-01  1.1630529061761D+00 -2.3976453745899D-01
    26  2.5000000000000D-01  1.1935366868036D+00 -2.2552377015815D-01
    27  2.6000000000000D-01  1.2221716694327D+00 -2.0940124803883D-01
    28  2.7000000000000D-01  1.2489436845065D+00 -1.9149679027566D-01
    29  2.8000000000000D-01  1.2738429995559D+00 -1.7192063027552D-01
    30  2.9000000000000D-01  1.2968640999339D+00 -1.5079228587648D-01
    31  3.0000000000000D-01  1.3180054506439D+00 -1.2823935576185D-01
    32  3.1000000000000D-01  1.3372692421130D+00 -1.0439625355131D-01
    33  3.2000000000000D-01  1.3546611228953D+00 -7.9402891628772D-02
    34  3.3000000000000D-01  1.3701899223942D+00 -5.3403327254693D-02
    35  3.4000000000000D-01  1.3838673667719D+00 -2.6544383882921D-02
    36  3.5000000000000D-01  1.3957077912531D+00  1.0257391462663D-03
    37  3.6000000000000D-01  1.4057278520445D+00  2.9158855236435D-02
    38  3.7000000000000D-01  1.4139462410655D+00  5.7708164186013D-02
    39  3.8000000000000D-01  1.4203834066318D+00  8.6529597681855D-02
    40  3.9000000000000D-01  1.4250612831447D+00  1.1548312370851D-01
    41  4.0000000000000D-01  1.4280030327164D+00  1.4443399732386D-01
    42  4.1000000000000D-01  1.4292328015097D+00  1.7325394575215D-01
    43  4.2000000000000D-01  1.4287754933879D+00  2.0182227636541D-01
    44  4.3000000000000D-01  1.4266565632560D+00  2.3002689685969D-01
    45  4.4000000000000D-01  1.4229018322399D+00  2.5776523777556D-01
    46  4.5000000000000D-01  1.4175373265801D+00  2.8494506845810D-01
    47  4.6000000000000D-01  1.4105891418379D+00  3.1148519858947D-01
    48  4.7000000000000D-01  1.4020833336985D+00  3.3731605855037D-01
    49  4.8000000000000D-01  1.3920458363388D+00  3.6238015306184D-01
    50  4.9000000000000D-01  1.3805024089893D+00  3.8663238381793D-01
    51  5.0000000000000D-01  1.3674786109733D+00  4.1004023812855D-01
    52  5.1000000000000D-01  1.3529998051567D+00  4.3258384193799D-01
    53  5.2000000000000D-01  1.3370911893831D+00  4.5425587695634D-01
    54  5.3000000000000D-01  1.3197778551208D+00  4.7506136302156D-01
    55  5.4000000000000D-01  1.3010848721941D+00  4.9501730818880D-01
    56  5.5000000000000D-01  1.2810373981355D+00  5.1415223040425D-01
    57  5.6000000000000D-01  1.2596608103706D+00  5.3250555594640D-01
    58  5.7000000000000D-01  1.2369808591331D+00  5.5012690110322D-01
    59  5.8000000000000D-01  1.2130238387256D+00  5.6707524476949D-01
    60  5.9000000000000D-01  1.1878167744719D+00  5.8341800080091D-01
    61  6.0000000000000D-01  1.1613876224762D+00  5.9923000001489D-01
    62  6.1000000000000D-01  1.1337654790948D+00  6.1459239269357D-01
    63  6.2000000000000D-01  1.1049807968584D+00  6.2959148328786D-01
    64  6.3000000000000D-01  1.0750656034490D+00  6.4431750975121D-01
    65  6.4000000000000D-01  1.0440537202395D+00  6.5886338052626D-01
    66  6.5000000000000D-01  1.0119809768497D+00  6.7332338266306D-01
    67  6.6000000000000D-01  9.7888541816508D-01  6.8779187485939D-01
    68  6.7000000000000D-01  9.4480750029116D-01  7.0236197937242D-01
    69  6.8000000000000D-01  9.0979027199662D-01  7.1712428675604D-01
    70  6.9000000000000D-01  8.7387953831710D-01  7.3216558722781D-01
    71  7.0000000000000D-01  8.3712400315493D-01  7.4756764216128D-01
    72  7.1000000000000D-01  7.9957538791699D-01  7.6340600873806D-01
    73  7.2000000000000D-01  7.6128852347863D-01  7.7974893018388D-01
    74  7.3000000000000D-01  7.2232141304885D-01  7.9665630325292D-01
    75  7.4000000000000D-01  6.8273526383248D-01  8.1417873373214D-01
    76  7.5000000000000D-01  6.4259448574021D-01  8.3235668971485D-01
    77  7.6000000000000D-01  6.0196665578125D-01  8.5121976125229D-01
    78  7.7000000000000D-01  5.6092244718165D-01  8.7078603374905D-01
    79  7.8000000000000D-01  5.1953552270024D-01  8.9106158113618D-01
    80  7.9000000000000D-01  4.7788239205941D-01  9.1204008344482D-01
    81  8.0000000000000D-01  4.3604223386107D-01  9.3370257194253D-01
    82  8.1000000000000D-01  3.9409668281702D-01  9.5601730349036D-01
    83  8.2000000000000D-01  3.5212958357937D-01  9.7893976425793D-01
    84  8.3000000000000D-01  3.1022671290548D-01  1.0024128014119D+00
    85  8.4000000000000D-01  2.6847547232644D-01  1.0263668798952D+00
    86  8.5000000000000D-01  2.2696455390197D-01  1.0507204599553D+00
    87  8.6000000000000D-01  1.8578358203284D-01  1.0753804896867D+00
    88  8.7000000000000D-01  1.4502273465602D-01  1.1002430055408D+00
    89  8.8000000000000D-01  1.0477234746441D-01  1.1251938325474D+00
    90  8.9000000000000D-01  6.5122505065047D-02  1.1501093749065D+00
    91  9.0000000000000D-01  2.6162623212146D-02  1.1748574866642D+00
    92  9.1000000000000D-01 -1.2018973580044D-02  1.1992984113930D+00
    93  9.2000000000000D-01 -4.9335474629410D-02  1.2232857791827D+00
    94  9.3000000000000D-01 -8.5702001419788D-02  1.2466676488097D+00
    95  9.4000000000000D-01 -1.2103601722935D-01  1.2692875827156D+00
    96  9.5000000000000D-01 -1.5525772369008D-01  1.2909857423847D+00
    97  9.6000000000000D-01 -1.8829044006775D-01  1.3115999918889D+00
    98  9.7000000000000D-01 -2.2006096126662D-01  1.3309669977336D+00
    99  9.8000000000000D-01 -2.5049989085788D-01  1.3489233137480D+00
   100  9.9000000000000D-01 -2.7954194577989D-01  1.3653064405459D+00
   101  1.0000000000000D+00 -3.0712622977806D-01  1.3799558500880D+00
   102  1.0100000000000D+00 -3.3319647312931D-01  1.3927139670554D+00
   103  1.0200000000000D+00 -3.5770123672728D-01  1.4034271001012D+00
   104  1.0300000000000D+00 -3.8059407920702D-01  1.4119463176153D+00
   105  1.0400000000000D+00 -4.0183368636234D-01  1.4181282641539D+00
   106  1.0500000000000D+00 -4.2138396283707D-01  1.4218359156306D+00
   107  1.0600000000000D+00 -4.3921408671215D-01  1.4229392730928D+00
   108  1.0700000000000D+00 -4.5529852832683D-01  1.4213159968471D+00
   109  1.0800000000000D+00 -4.6961703541412D-01  1.4168519847093D+00
   110  1.0900000000000D+00 -4.8215458725551D-01  1.4094418998528D+00
   111  1.1000000000000D+00 -4.9290132134275D-01  1.3989896558453D+00
   112  1.1100000000000D+00 -5.0185243663816D-01  1.3854088680907D+00
   113  1.1200000000000D+00 -5.0900807816365D-01  1.3686232825807D+00
   114  1.1300000000000D+00 -5.1437320818093D-01  1.3485671942485D+00
   115  1.1400000000000D+00 -5.1795746971852D-01  1.3251858684748D+00
   116  1.1500000000000D+00 -5.1977504864487D-01  1.2984359803511D+00
   117  1.1600000000000D+00 -5.1984454073335D-01  1.2682860867915D+00
   118  1.1700000000000D+00 -5.1818883034269D-01  1.2347171468433D+00
   119  1.1800000000000D+00 -5.1483498745561D-01  1.1977231056033D+00
   120  1.1900000000000D+00 -5.0981418969490D-01  1.1573115564035D+00
   121  1.2000000000000D+00 -5.0316167553982D-01  1.1135044943205D+00
   122  1.2100000000000D+00 -4.9491673485269D-01  1.0663391735157D+00
   123  1.2200000000000D+00 -4.8512274195035D-01  1.0158690776125D+00
   124  1.2300000000000D+00 -4.7382723554231D-01  9.6216500913879D-01
   125  1.2400000000000D+00 -4.6108204909746D-01  9.0531630136327D-01
   126  1.2500000000000D+00 -4.4694349396715D-01  8.4543215152252D-01
   127  1.2600000000000D+00 -4.3147259541926D-01  7.8264306705983D-01
   128  1.2700000000000D+00 -4.1473538052034D-01  7.1710241237538D-01
   129  1.2800000000000D+00 -3.9680321528023D-01  6.4898803838435D-01
   130  1.2900000000000D+00 -3.7775318427920D-01  5.7850396314210D-01
   131  1.3000000000000D+00 -3.5766850494425D-01  5.0588206829347D-01
   132  1.3100000000000D+00 -3.3663896629132D-01  4.3138376820096D-01
   133  1.3200000000000D+00 -3.1476137510503D-01  3.5530158587298D-01
   134  1.3300000000000D+00 -2.9213999315700D-01  2.7796057190321D-01
   135  1.3400000000000D+00 -2.6888694374135D-01  1.9971948493216D-01
   136  1.3500000000000D+00 -2.4512255650931D-01  1.2097162134789D-01
   137  1.3600000000000D+00 -2.2097562492114D-01  4.2145199613069D-02
   138  1.3700000000000D+00 -1.9658353565557D-01 -3.6296845023198D-02
   139  1.3800000000000D+00 -1.7209222471764D-01 -1.1385781493888D-01
   140  1.3900000000000D+00 -1.4765592061615D-01 -1.9000909448254D-01
   141  1.4000000000000D+00 -1.2343660690258D-01 -2.6419311819391D-01
   142  1.4100000000000D+00 -9.9603150255685D-02 -3.3582765079780D-01
   143  1.4200000000000D+00 -7.6330023448429D-02 -4.0431162267096D-01
   144  1.4300000000000D+00 -5.3795531900936D-02 -4.6903283326642D-01
   145  1.4400000000000D+00 -3.2179479552590D-02 -5.2937774486660D-01
   146  1.4500000000000D+00 -1.1660148778310D-02 -5.8474379224324D-01
   147  1.4600000000000D+00  7.5894909099682D-03 -6.3455450055196D-01
   148  1.4700000000000D+00  2.5406536550487D-02 -6.7827809446157D-01
   149  1.4800000000000D+00  4.1643598092122D-02 -7.1544846162288D-01
   150  1.4900000000000D+00  5.6176640567085D-02 -7.4569508380533D-01
   151  1.5000000000000D+00  6.8909704017319D-02 -7.6876031688003D-01
   152  1.5100000000000D+00  7.9791671778304D-02 -7.8456303278779D-01
   153  1.5200000000000D+00  8.8824503553670D-02 -7.9322857354025D-01
   154  1.5300000000000D+00  9.6052809429421D-02 -7.9504366081721D-01
   155  1.5400000000000D+00  1.0155346239526D-01 -7.9041327738333D-01
   156  1.5500000000000D+00  1.0541339367237D-01 -7.7977284745067D-01
   157  1.5600000000000D+00  1.0772475232585D-01 -7.6356907092852D-01
   158  1.5700000000000D+00  1.0858962158687D-01 -7.4227934207300D-01
   159  1.5800000000000D+00  1.0811706190155D-01 -7.1640037934121D-01
   160  1.5900000000000D+00  1.0642248661820D-01 -6.8644622677397D-01
   161  1.6000000000000D+00  1.0362643107257D-01 -6.5294389833464D-01
   162  1.6100000000000D+00  9.9853500894559D-02 -6.1642975439229D-01
   163  1.6200000000000D+00  9.5231257398102D-02 -5.7744565059240D-01
   164  1.6300000000000D+00  8.9889078652274D-02 -5.3653500644082D-01
   165  1.6400000000000D+00  8.3957009556837D-02 -4.9423884205199D-01
   166  1.6500000000000D+00  7.7564611141482D-02 -4.5109181779828D-01
   167  1.6600000000000D+00  7.0839817915439D-02 -4.0761830662501D-01
   168  1.6700000000000D+00  6.3907812340428D-02 -3.6432852986578D-01
   169  1.6800000000000D+00  5.6889926120648D-02 -3.2171478931627D-01
   170  1.6900000000000D+00  4.9902576075858D-02 -2.8024782196695D-01
   171  1.7000000000000D+00  4.3056244870976D-02 -2.4037331216533D-01
   172  1.7100000000000D+00  3.6454512669420D-02 -2.0250858185331D-01
   173  1.7200000000000D+00  3.0193150218914D-02 -1.6703949438878D-01
   174  1.7300000000000D+00  2.4359277078919D-02 -1.3431758462650D-01
   175  1.7400000000000D+00  1.9030598326499D-02 -1.0465746087841D-01
   176  1.7500000000000D+00  1.4275472961095D-02 -7.8338603246912D-02
   177  1.7600000000000D+00  1.0152315712773D-02 -5.5603338545574D-02
   178  1.7700000000000D+00  6.6962414418191D-03 -3.6585051402651D-02
   179  1.7800000000000D+00  3.9318300537257D-03 -2.1381098130378D-02
   180  1.7900000000000D+00  1.9429924720648D-03 -1.0421928761230D-02
   181  1.8000000000000D+00  7.5982352900457D-04 -3.8604496180985D-03
   182  1.8100000000000D+00  1.9632813991120D-04 -7.5049832208799D-04
   183  1.8200000000000D+00  3.5642636061395D-06  1.9773862702589D-04
   184  1.8300000000000D+00 -1.1358091579508D-05  1.1683775823934D-04
   185  1.8400000000000D+00  9.8523457005440D-06 -8.5283704088017D-05
   186  1.8500000000000D+00  9.0416264056931D-06 -7.2381729581517D-05
   187  1.8600000000000D+00 -9.1291425578330D-07  9.8629965172878D-06
   188  1.8700000000000D+00 -1.5345203992934D-06  1.5230667037474D-05
   189  1.8800000000000D+00 -1.0443217626739D-07  3.2046493995725D-07
   190  1.8900000000000D+00 -3.6805894495500D-07  1.1294410584123D-06
   191  1.9000000000000D+00 -3.9100685291628D-08  1.1998599676968D-07
   192  1.9100000000000D+00  0.0000000000000D+00  0.0000000000000D+00
   193  1.9200000000000D+00  0.0000000000000D+00  0.0000000000000D+00
   194  1.9300000000000D+00  0.0000000000000D+00  0.0000000000000D+00
   195  1.9400000000000D+00  0.0000000000000D+00  0.0000000000000D+00
   196  1.9500000000000D+00  0.0000000000000D+00  0.0000000000000D+00
   197  1.9600000000000D+00  0.0000000000000D+00  0.0000000000000D+00
   198  1.9700000000000D+00  0.0000000000000D+00  0.0000000000000D+00
   199  1.9800000000000D+00  0.0000000000000D+00  0.0000000000000D+00
   200  1.9900000000000D+00  0.0000000000000D+00  0.0000000000000D+00
   201  2.0000000000000D+00  0.0000000000000D+00  0.0000000000000D+00
   202  2.0100000000000D+00  0.0000000000000D+00  0.0000000000000D+00
   203  2.0200000000000D+00  0.0000000000000D+00  0.0000000000000D+00
   204  2.0300000000000D+00  0.0000000000000D+00  0.0000000000000D+00
   205  2.0400000000000D+00  0.0000000000000D+00  0.0000000000000D+00
   206  2.0500000000000D+00  0.0000000000000D+00  0.0000000000000D+00
   207  2.0600000000000D+00  0.0000000000000D+00  0.0000000000000D+00
   208  2.0700000000000D+00  0.0000000000000D+00  0.0000000000000D+00
   209  2.0800000000000D+00  0.0000000000000D+00  0.0000000000000D+00
   210  2.0900000000000D+00  0.0000000000000D+00  0.0000000000000D+00
   211  2.1000000000000D+00  0.0000000000000D+00  0.0000000000000D+00
   212  2.1100000000000D+00  0.0000000000000D+00  0.0000000000000D+00
   213  2.1200000000000D+00  0.0000000000000D+00  0.0000000000000D+00
   214  2.1300000000000D+00  0.0000000000000D+00  0.0000000000000D+00
   215  2.1400000000000D+00  0.0000000000000D+00  0.0000000000000D+00
   216  2.1500000000000D+00  0.0000000000000D+00  0.0000000000000D+00
   217  2.1600000000000D+00  0.0000000000000D+00  0.0000000000000D+00
   218  2.1700000000000D+00  0.0000000000000D+00  0.0000000000000D+00
   219  2.1800000000000D+00  0.0000000000000D+00  0.0000000000000D+00
   220  2.1900000000000D+00  0.0000000000000D+00  0.0000000000000D+00
   221  2.2000000000000D+00  0.0000000000000D+00  0.0000000000000D+00
   222  2.2100000000000D+00  0.0000000000000D+00  0.0000000000000D+00
   223  2.2200000000000D+00  0.0000000000000D+00  0.0000000000000D+00
   224  2.2300000000000D+00  0.0000000000000D+00  0.0000000000000D+00
   225  2.2400000000000D+00  0.0000000000000D+00  0.0000000000000D+00
   226  2.2500000000000D+00  0.0000000000000D+00  0.0000000000000D+00
   227  2.2600000000000D+00  0.0000000000000D+00  0.0000000000000D+00
   228  2.2700000000000D+00  0.0000000000000D+00  0.0000000000000D+00
   229  2.2800000000000D+00  0.0000000000000D+00  0.0000000000000D+00
   230  2.2900000000000D+00  0.0000000000000D+00  0.0000000000000D+00
   231  2.3000000000000D+00  0.0000000000000D+00  0.0000000000000D+00
   232  2.3100000000000D+00  0.0000000000000D+00  0.0000000000000D+00
   233  2.3200000000000D+00  0.0000000000000D+00  0.0000000000000D+00
   234  2.3300000000000D+00  0.0000000000000D+00  0.0000000000000D+00
   235  2.3400000000000D+00  0.0000000000000D+00  0.0000000000000D+00
   236  2.3500000000000D+00  0.0000000000000D+00  0.0000000000000D+00
   237  2.3600000000000D+00  0.0000000000000D+00  0.0000000000000D+00
   238  2.3700000000000D+00  0.0000000000000D+00  0.0000000000000D+00
   239  2.3800000000000D+00  0.0000000000000D+00  0.0000000000000D+00
   240  2.3900000000000D+00  0.0000000000000D+00  0.0000000000000D+00
   241  2.4000000000000D+00  0.0000000000000D+00  0.0000000000000D+00
   242  2.4100000000000D+00  0.0000000000000D+00  0.0000000000000D+00
   243  2.4200000000000D+00  0.0000000000000D+00  0.0000000000000D+00
   244  2.4300000000000D+00  0.0000000000000D+00  0.0000000000000D+00
   245  2.4400000000000D+00  0.0000000000000D+00  0.0000000000000D+00
   246  2.4500000000000D+00  0.0000000000000D+00  0.0000000000000D+00
   247  2.4600000000000D+00  0.0000000000000D+00  0.0000000000000D+00
   248  2.4700000000000D+00  0.0000000000000D+00  0.0000000000000D+00
   249  2.4800000000000D+00  0.0000000000000D+00  0.0000000000000D+00
   250  2.4900000000000D+00  0.0000000000000D+00  0.0000000000000D+00
   251  2.5000000000000D+00  0.0000000000000D+00  0.0000000000000D+00
   252  2.5100000000000D+00  0.0000000000000D+00  0.0000000000000D+00
   253  2.5200000000000D+00  0.0000000000000D+00  0.0000000000000D+00
   254  2.5300000000000D+00  0.0000000000000D+00  0.0000000000000D+00
   255  2.5400000000000D+00  0.0000000000000D+00  0.0000000000000D+00
   256  2.5500000000000D+00  0.0000000000000D+00  0.0000000000000D+00
   257  2.5600000000000D+00  0.0000000000000D+00  0.0000000000000D+00
   258  2.5700000000000D+00  0.0000000000000D+00  0.0000000000000D+00
   259  2.5800000000000D+00  0.0000000000000D+00  0.0000000000000D+00
   260  2.5900000000000D+00  0.0000000000000D+00  0.0000000000000D+00
   261  2.6000000000000D+00  0.0000000000000D+00  0.0000000000000D+00
   262  2.6100000000000D+00  0.0000000000000D+00  0.0000000000000D+00
   263  2.6200000000000D+00  0.0000000000000D+00  0.0000000000000D+00
   264  2.6300000000000D+00  0.0000000000000D+00  0.0000000000000D+00
   265  2.6400000000000D+00  0.0000000000000D+00  0.0000000000000D+00
   266  2.6500000000000D+00  0.0000000000000D+00  0.0000000000000D+00
   267  2.6600000000000D+00  0.0000000000000D+00  0.0000000000000D+00
   268  2.6700000000000D+00  0.0000000000000D+00  0.0000000000000D+00
   269  2.6800000000000D+00  0.0000000000000D+00  0.0000000000000D+00
   270  2.6900000000000D+00  0.0000000000000D+00  0.0000000000000D+00
   271  2.7000000000000D+00  0.0000000000000D+00  0.0000000000000D+00
   272  2.7100000000000D+00  0.0000000000000D+00  0.0000000000000D+00
   273  2.7200000000000D+00  0.0000000000000D+00  0.0000000000000D+00
   274  2.7300000000000D+00  0.0000000000000D+00  0.0000000000000D+00
   275  2.7400000000000D+00  0.0000000000000D+00  0.0000000000000D+00
   276  2.7500000000000D+00  0.0000000000000D+00  0.0000000000000D+00
   277  2.7600000000000D+00  0.0000000000000D+00  0.0000000000000D+00
   278  2.7700000000000D+00  0.0000000000000D+00  0.0000000000000D+00
   279  2.7800000000000D+00  0.0000000000000D+00  0.0000000000000D+00
   280  2.7900000000000D+00  0.0000000000000D+00  0.0000000000000D+00
   281  2.8000000000000D+00  0.0000000000000D+00  0.0000000000000D+00
   282  2.8100000000000D+00  0.0000000000000D+00  0.0000000000000D+00
   283  2.8200000000000D+00  0.0000000000000D+00  0.0000000000000D+00
   284  2.8300000000000D+00  0.0000000000000D+00  0.0000000000000D+00
   285  2.8400000000000D+00  0.0000000000000D+00  0.0000000000000D+00
   286  2.8500000000000D+00  0.0000000000000D+00  0.0000000000000D+00
   287  2.8600000000000D+00  0.0000000000000D+00  0.0000000000000D+00
   288  2.8700000000000D+00  0.0000000000000D+00  0.0000000000000D+00
   289  2.8800000000000D+00  0.0000000000000D+00  0.0000000000000D+00
   290  2.8900000000000D+00  0.0000000000000D+00  0.0000000000000D+00
   291  2.9000000000000D+00  0.0000000000000D+00  0.0000000000000D+00
   292  2.9100000000000D+00  0.0000000000000D+00  0.0000000000000D+00
   293  2.9200000000000D+00  0.0000000000000D+00  0.0000000000000D+00
   294  2.9300000000000D+00  0.0000000000000D+00  0.0000000000000D+00
   295  2.9400000000000D+00  0.0000000000000D+00  0.0000000000000D+00
   296  2.9500000000000D+00  0.0000000000000D+00  0.0000000000000D+00
   297  2.9600000000000D+00  0.0000000000000D+00  0.0000000000000D+00
   298  2.9700000000000D+00  0.0000000000000D+00  0.0000000000000D+00
   299  2.9800000000000D+00  0.0000000000000D+00  0.0000000000000D+00
   300  2.9900000000000D+00  0.0000000000000D+00  0.0000000000000D+00
   301  3.0000000000000D+00  0.0000000000000D+00  0.0000000000000D+00
   302  3.0100000000000D+00  0.0000000000000D+00  0.0000000000000D+00
   303  3.0200000000000D+00  0.0000000000000D+00  0.0000000000000D+00
   304  3.0300000000000D+00  0.0000000000000D+00  0.0000000000000D+00
   305  3.0400000000000D+00  0.0000000000000D+00  0.0000000000000D+00
   306  3.0500000000000D+00  0.0000000000000D+00  0.0000000000000D+00
   307  3.0600000000000D+00  0.0000000000000D+00  0.0000000000000D+00
   308  3.0700000000000D+00  0.0000000000000D+00  0.0000000000000D+00
   309  3.0800000000000D+00  0.0000000000000D+00  0.0000000000000D+00
   310  3.0900000000000D+00  0.0000000000000D+00  0.0000000000000D+00
   311  3.1000000000000D+00  0.0000000000000D+00  0.0000000000000D+00
   312  3.1100000000000D+00  0.0000000000000D+00  0.0000000000000D+00
   313  3.1200000000000D+00  0.0000000000000D+00  0.0000000000000D+00
   314  3.1300000000000D+00  0.0000000000000D+00  0.0000000000000D+00
   315  3.1400000000000D+00  0.0000000000000D+00  0.0000000000000D+00
   316  3.1500000000000D+00  0.0000000000000D+00  0.0000000000000D+00
   317  3.1600000000000D+00  0.0000000000000D+00  0.0000000000000D+00
   318  3.1700000000000D+00  0.0000000000000D+00  0.0000000000000D+00
   319  3.1800000000000D+00  0.0000000000000D+00  0.0000000000000D+00
   320  3.1900000000000D+00  0.0000000000000D+00  0.0000000000000D+00
   321  3.2000000000000D+00  0.0000000000000D+00  0.0000000000000D+00
   322  3.2100000000000D+00  0.0000000000000D+00  0.0000000000000D+00
   323  3.2200000000000D+00  0.0000000000000D+00  0.0000000000000D+00
   324  3.2300000000000D+00  0.0000000000000D+00  0.0000000000000D+00
   325  3.2400000000000D+00  0.0000000000000D+00  0.0000000000000D+00
   326  3.2500000000000D+00  0.0000000000000D+00  0.0000000000000D+00
   327  3.2600000000000D+00  0.0000000000000D+00  0.0000000000000D+00
   328  3.2700000000000D+00  0.0000000000000D+00  0.0000000000000D+00
   329  3.2800000000000D+00  0.0000000000000D+00  0.0000000000000D+00
   330  3.2900000000000D+00  0.0000000000000D+00  0.0000000000000D+00
   331  3.3000000000000D+00  0.0000000000000D+00  0.0000000000000D+00
   332  3.3100000000000D+00  0.0000000000000D+00  0.0000000000000D+00
   333  3.3200000000000D+00  0.0000000000000D+00  0.0000000000000D+00
   334  3.3300000000000D+00  0.0000000000000D+00  0.0000000000000D+00
   335  3.3400000000000D+00  0.0000000000000D+00  0.0000000000000D+00
   336  3.3500000000000D+00  0.0000000000000D+00  0.0000000000000D+00
   337  3.3600000000000D+00  0.0000000000000D+00  0.0000000000000D+00
   338  3.3700000000000D+00  0.0000000000000D+00  0.0000000000000D+00
   339  3.3800000000000D+00  0.0000000000000D+00  0.0000000000000D+00
   340  3.3900000000000D+00  0.0000000000000D+00  0.0000000000000D+00
   341  3.4000000000000D+00  0.0000000000000D+00  0.0000000000000D+00
   342  3.4100000000000D+00  0.0000000000000D+00  0.0000000000000D+00
   343  3.4200000000000D+00  0.0000000000000D+00  0.0000000000000D+00
   344  3.4300000000000D+00  0.0000000000000D+00  0.0000000000000D+00
   345  3.4400000000000D+00  0.0000000000000D+00  0.0000000000000D+00
   346  3.4500000000000D+00  0.0000000000000D+00  0.0000000000000D+00
   347  3.4600000000000D+00  0.0000000000000D+00  0.0000000000000D+00
   348  3.4700000000000D+00  0.0000000000000D+00  0.0000000000000D+00
   349  3.4800000000000D+00  0.0000000000000D+00  0.0000000000000D+00
   350  3.4900000000000D+00  0.0000000000000D+00  0.0000000000000D+00
   351  3.5000000000000D+00  0.0000000000000D+00  0.0000000000000D+00
   352  3.5100000000000D+00  0.0000000000000D+00  0.0000000000000D+00
   353  3.5200000000000D+00  0.0000000000000D+00  0.0000000000000D+00
   354  3.5300000000000D+00  0.0000000000000D+00  0.0000000000000D+00
   355  3.5400000000000D+00  0.0000000000000D+00  0.0000000000000D+00
   356  3.5500000000000D+00  0.0000000000000D+00  0.0000000000000D+00
   357  3.5600000000000D+00  0.0000000000000D+00  0.0000000000000D+00
   358  3.5700000000000D+00  0.0000000000000D+00  0.0000000000000D+00
   359  3.5800000000000D+00  0.0000000000000D+00  0.0000000000000D+00
   360  3.5900000000000D+00  0.0000000000000D+00  0.0000000000000D+00
   361  3.6000000000000D+00  0.0000000000000D+00  0.0000000000000D+00
   362  3.6100000000000D+00  0.0000000000000D+00  0.0000000000000D+00
   363  3.6200000000000D+00  0.0000000000000D+00  0.0000000000000D+00
   364  3.6300000000000D+00  0.0000000000000D+00  0.0000000000000D+00
   365  3.6400000000000D+00  0.0000000000000D+00  0.0000000000000D+00
   366  3.6500000000000D+00  0.0000000000000D+00  0.0000000000000D+00
   367  3.6600000000000D+00  0.0000000000000D+00  0.0000000000000D+00
   368  3.6700000000000D+00  0.0000000000000D+00  0.0000000000000D+00
   369  3.6800000000000D+00  0.0000000000000D+00  0.0000000000000D+00
   370  3.6900000000000D+00  0.0000000000000D+00  0.0000000000000D+00
   371  3.7000000000000D+00  0.0000000000000D+00  0.0000000000000D+00
   372  3.7100000000000D+00  0.0000000000000D+00  0.0000000000000D+00
   373  3.7200000000000D+00  0.0000000000000D+00  0.0000000000000D+00
   374  3.7300000000000D+00  0.0000000000000D+00  0.0000000000000D+00
   375  3.7400000000000D+00  0.0000000000000D+00  0.0000000000000D+00
   376  3.7500000000000D+00  0.0000000000000D+00  0.0000000000000D+00
   377  3.7600000000000D+00  0.0000000000000D+00  0.0000000000000D+00
   378  3.7700000000000D+00  0.0000000000000D+00  0.0000000000000D+00
   379  3.7800000000000D+00  0.0000000000000D+00  0.0000000000000D+00
   380  3.7900000000000D+00  0.0000000000000D+00  0.0000000000000D+00
   381  3.8000000000000D+00  0.0000000000000D+00  0.0000000000000D+00
   382  3.8100000000000D+00  0.0000000000000D+00  0.0000000000000D+00
   383  3.8200000000000D+00  0.0000000000000D+00  0.0000000000000D+00
   384  3.8300000000000D+00  0.0000000000000D+00  0.0000000000000D+00
   385  3.8400000000000D+00  0.0000000000000D+00  0.0000000000000D+00
   386  3.8500000000000D+00  0.0000000000000D+00  0.0000000000000D+00
   387  3.8600000000000D+00  0.0000000000000D+00  0.0000000000000D+00
   388  3.8700000000000D+00  0.0000000000000D+00  0.0000000000000D+00
   389  3.8800000000000D+00  0.0000000000000D+00  0.0000000000000D+00
   390  3.8900000000000D+00  0.0000000000000D+00  0.0000000000000D+00
   391  3.9000000000000D+00  0.0000000000000D+00  0.0000000000000D+00
   392  3.9100000000000D+00  0.0000000000000D+00  0.0000000000000D+00
   393  3.9200000000000D+00  0.0000000000000D+00  0.0000000000000D+00
   394  3.9300000000000D+00  0.0000000000000D+00  0.0000000000000D+00
   395  3.9400000000000D+00  0.0000000000000D+00  0.0000000000000D+00
   396  3.9500000000000D+00  0.0000000000000D+00  0.0000000000000D+00
   397  3.9600000000000D+00  0.0000000000000D+00  0.0000000000000D+00
   398  3.9700000000000D+00  0.0000000000000D+00  0.0000000000000D+00
   399  3.9800000000000D+00  0.0000000000000D+00  0.0000000000000D+00
   400  3.9900000000000D+00  0.0000000000000D+00  0.0000000000000D+00
   401  4.0000000000000D+00  0.0000000000000D+00  0.0000000000000D+00
   402  4.0100000000000D+00  0.0000000000000D+00  0.0000000000000D+00
   403  4.0200000000000D+00  0.0000000000000D+00  0.0000000000000D+00
   404  4.0300000000000D+00  0.0000000000000D+00  0.0000000000000D+00
   405  4.0400000000000D+00  0.0000000000000D+00  0.0000000000000D+00
   406  4.0500000000000D+00  0.0000000000000D+00  0.0000000000000D+00
   407  4.0600000000000D+00  0.0000000000000D+00  0.0000000000000D+00
   408  4.0700000000000D+00  0.0000000000000D+00  0.0000000000000D+00
   409  4.0800000000000D+00  0.0000000000000D+00  0.0000000000000D+00
   410  4.0900000000000D+00  0.0000000000000D+00  0.0000000000000D+00
   411  4.1000000000000D+00  0.0000000000000D+00  0.0000000000000D+00
   412  4.1100000000000D+00  0.0000000000000D+00  0.0000000000000D+00
   413  4.1200000000000D+00  0.0000000000000D+00  0.0000000000000D+00
   414  4.1300000000000D+00  0.0000000000000D+00  0.0000000000000D+00
   415  4.1400000000000D+00  0.0000000000000D+00  0.0000000000000D+00
   416  4.1500000000000D+00  0.0000000000000D+00  0.0000000000000D+00
   417  4.1600000000000D+00  0.0000000000000D+00  0.0000000000000D+00
   418  4.1700000000000D+00  0.0000000000000D+00  0.0000000000000D+00
   419  4.1800000000000D+00  0.0000000000000D+00  0.0000000000000D+00
   420  4.1900000000000D+00  0.0000000000000D+00  0.0000000000000D+00
   421  4.2000000000000D+00  0.0000000000000D+00  0.0000000000000D+00
   422  4.2100000000000D+00  0.0000000000000D+00  0.0000000000000D+00