La    ONCVPSP-3.3.0  r_core=   2.11664   1.60878   1.85636   1.66739
     57.0000     11.0000      220117    zatom,zion,pspd
     8      11   3     4   600     0    pspcod,pspxc,lmax,lloc,mmax,r2well
  5.99000000  0.00000000  0.00000000    rchrg fchrg qchrg
     2     2     2     2     0    nproj
     1     1           extension_switch
   0                         6.6314881368710D+00  6.2165675022168D-01
     1  0.0000000000000D+00 -4.4861336867541D-12  4.0820624658267D-11
     2  1.0000000000000D-02  3.1547770251040D-02 -1.0965551927691D-02
     3  2.0000000000000D-02  6.3078511408628D-02 -2.1890717045731D-02
     4  3.0000000000000D-02  9.4575198745600D-02 -3.2735341471868D-02
     5  4.0000000000000D-02  1.2602081618879D-01 -4.3459735555149D-02
     6  5.0000000000000D-02  1.5739836045073D-01 -5.4024901943150D-02
     7  6.0000000000000D-02  1.8869084493019D-01 -6.4392758819985D-02
     8  7.0000000000000D-02  2.1988130330971D-01 -7.4526356753291D-02
     9  8.0000000000000D-02  2.5095279278294D-01 -8.4390087629223D-02
    10  9.0000000000000D-02  2.8188839684985D-01 -9.3949884205057D-02
    11  1.0000000000000D-01  3.1267122762478D-01 -1.0317340886909D-01
    12  1.1000000000000D-01  3.4328442760938D-01 -1.1203023026694D-01
    13  1.2000000000000D-01  3.7371117089128D-01 -1.2049198653142D-01
    14  1.3000000000000D-01  4.0393466373834D-01 -1.2853253393990D-01
    15  1.4000000000000D-01  4.3393814456849D-01 -1.3612807991760D-01
    16  1.5000000000000D-01  4.6370488328577D-01 -1.4325729940718D-01
    17  1.6000000000000D-01  4.9321817998445D-01 -1.4990143373418D-01
    18  1.7000000000000D-01  5.2246136303517D-01 -1.5604437121274D-01
    19  1.8000000000000D-01  5.5141778657877D-01 -1.6167270885723D-01
    20  1.9000000000000D-01  5.8007082746651D-01 -1.6677579469098D-01
    21  2.0000000000000D-01  6.0840388169765D-01 -1.7134575027346D-01
    22  2.1000000000000D-01  6.3640036041829D-01 -1.7537747320080D-01
    23  2.2000000000000D-01  6.6404368555804D-01 -1.7886861947074D-01
    24  2.3000000000000D-01  6.9131728519356D-01 -1.8181956574132D-01
    25  2.4000000000000D-01  7.1820458874018D-01 -1.8423335165138D-01
    26  2.5000000000000D-01  7.4468902208471D-01 -1.8611560251087D-01
    27  2.6000000000000D-01  7.7075400278350D-01 -1.8747443280695D-01
    28  2.7000000000000D-01  7.9638293546054D-01 -1.8832033110916D-01
    29  2.8000000000000D-01  8.2155920754980D-01 -1.8866602709159D-01
    30  2.9000000000000D-01  8.4626618553486D-01 -1.8852634152055D-01
    31  3.0000000000000D-01  8.7048721184638D-01 -1.8791802018368D-01
    32  3.1000000000000D-01  8.9420560258439D-01 -1.8685955285755D-01
    33  3.2000000000000D-01  9.1740464623723D-01 -1.8537097852654D-01
    34  3.3000000000000D-01  9.4006760357285D-01 -1.8347367817449D-01
    35  3.4000000000000D-01  9.6217770887989D-01 -1.8119015657123D-01
    36  3.5000000000000D-01  9.8371817273650D-01 -1.7854381456858D-01
    37  3.6000000000000D-01  1.0046721864836D+00 -1.7555871350344D-01
    38  3.7000000000000D-01  1.0250229285754D+00 -1.7225933337839D-01
    39  3.8000000000000D-01  1.0447535729765D+00 -1.6867032655256D-01
    40  3.9000000000000D-01  1.0638472997656D+00 -1.6481626872677D-01
    41  4.0000000000000D-01  1.0822873080987D+00 -1.6072140904538D-01
    42  4.1000000000000D-01  1.1000568316738D+00 -1.5640942116516D-01
    43  4.2000000000000D-01  1.1171391568233D+00 -1.5190315715455D-01
    44  4.3000000000000D-01  1.1335176433502D+00 -1.4722440608861D-01
    45  4.4000000000000D-01  1.1491757482025D+00 -1.4239365919237D-01
    46  4.5000000000000D-01  1.1640970520640D+00 -1.3742988335974D-01
    47  4.6000000000000D-01  1.1782652889192D+00 -1.3235030483664D-01
    48  4.7000000000000D-01  1.1916643786257D+00 -1.2717020480414D-01
    49  4.8000000000000D-01  1.2042784625059D+00 -1.2190272853230D-01
    50  4.9000000000000D-01  1.2160919419426D+00 -1.1655870969652D-01
    51  5.0000000000000D-01  1.2270895199364D+00 -1.1114651135781D-01
    52  5.1000000000000D-01  1.2372562455568D+00 -1.0567188500456D-01
    53  5.2000000000000D-01  1.2465775611869D+00 -1.0013784893925D-01
    54  5.3000000000000D-01  1.2550393524343D+00 -9.4544587168164D-02
    55  5.4000000000000D-01  1.2626280005498D+00 -8.8889369816232D-02
    56  5.5000000000000D-01  1.2693304371654D+00 -8.3166495945153D-02
    57  5.6000000000000D-01  1.2751342011325D+00 -7.7367259500174D-02
    58  5.7000000000000D-01  1.2800274972109D+00 -7.1479938950659D-02
    59  5.8000000000000D-01  1.2839992563305D+00 -6.5489811025161D-02
    60  5.9000000000000D-01  1.2870391971181D+00 -5.9379188770116D-02
    61  6.0000000000000D-01  1.2891378883567D+00 -5.3127483989338D-02
    62  6.1000000000000D-01  1.2902868120146D+00 -4.6711293944894D-02
    63  6.2000000000000D-01  1.2904784264629D+00 -4.0104512024871D-02
    64  6.3000000000000D-01  1.2897062294757D+00 -3.3278461908549D-02
    65  6.4000000000000D-01  1.2879648205874D+00 -2.6202054586813D-02
    66  6.5000000000000D-01  1.2852499623679D+00 -1.8841967427994D-02
    67  6.6000000000000D-01  1.2815586401626D+00 -1.1162844315560D-02
    68  6.7000000000000D-01  1.2768891198321D+00 -3.1275157288145D-03
    69  6.8000000000000D-01  1.2712410030260D+00  5.3027625096538D-03
    70  6.9000000000000D-01  1.2646152795175D+00  1.4168053234329D-02
    71  7.0000000000000D-01  1.2570143761329D+00  2.3509466225296D-02
    72  7.1000000000000D-01  1.2484422018138D+00  3.3368872439709D-02
    73  7.2000000000000D-01  1.2389041883621D+00  4.3788605941372D-02
    74  7.3000000000000D-01  1.2284073264352D+00  5.4811155369458D-02
    75  7.4000000000000D-01  1.2169601963783D+00  6.6478846857928D-02
    76  7.5000000000000D-01  1.2045729935063D+00  7.8833520370982D-02
    77  7.6000000000000D-01  1.1912575474799D+00  9.1916201457154D-02
    78  7.7000000000000D-01  1.1770273354547D+00  1.0576677044478D-01
    79  7.8000000000000D-01  1.1618974887205D+00  1.2042363110317D-01
    80  7.9000000000000D-01  1.1458847925960D+00  1.3592338077941D-01
    81  8.0000000000000D-01  1.1290076793892D+00  1.5230048398687D-01
    82  8.1000000000000D-01  1.1112862142870D+00  1.6958695137254D-01
    83  8.2000000000000D-01  1.0927420740946D+00  1.8781202592332D-01
    84  8.3000000000000D-01  1.0733985188035D+00  2.0700187818961D-01
    85  8.4000000000000D-01  1.0532803560276D+00  2.2717931220805D-01
    86  8.5000000000000D-01  1.0324138984122D+00  2.4836348369480D-01
    87  8.6000000000000D-01  1.0108269141857D+00  2.7056963195922D-01
    88  8.7000000000000D-01  9.8854857108845D-01  2.9380882685569D-01
    89  8.8000000000000D-01  9.6560937398137D-01  3.1808773195064D-01
    90  8.9000000000000D-01  9.4204109650059D-01  3.4340838493566D-01
    91  9.0000000000000D-01  9.1787670719064D-01  3.6976799616644D-01
    92  9.1000000000000D-01  8.9315029060859D-01  3.9715876605566D-01
    93  9.2000000000000D-01  8.6789696395175D-01  4.2556772189615D-01
    94  9.3000000000000D-01  8.4215278981579D-01  4.5497657454307D-01
    95  9.4000000000000D-01  8.1595468574027D-01  4.8536159524253D-01
    96  9.5000000000000D-01  7.8934033124271D-01  5.1669351276072D-01
    97  9.6000000000000D-01  7.6234807307991D-01  5.4893743084760D-01
    98  9.7000000000000D-01  7.3501682950496D-01  5.8205276596204D-01
    99  9.8000000000000D-01  7.0738599431059D-01  6.1599320509490D-01
   100  9.9000000000000D-01  6.7949534146120D-01  6.5070668345707D-01
   101  1.0000000000000D+00  6.5138493111889D-01  6.8613538175035D-01
   102  1.0100000000000D+00  6.2309501786048D-01  7.2221574271388D-01
   103  1.0200000000000D+00  5.9466596186325D-01  7.5887850663946D-01
   104  1.0300000000000D+00  5.6613814380466D-01  7.9604876557920D-01
   105  1.0400000000000D+00  5.3755188418158D-01  8.3364603601912D-01
   106  1.0500000000000D+00  5.0894736769430D-01  8.7158434988399D-01
   107  1.0600000000000D+00  4.8036457327525D-01  9.0977236384927D-01
   108  1.0700000000000D+00  4.5184321026140D-01  9.4811348707837D-01
   109  1.0800000000000D+00  4.2342266110903D-01  9.8650602768895D-01
   110  1.0900000000000D+00  3.9514193095972D-01  1.0248433584200D+00
   111  1.1000000000000D+00  3.6703960423116D-01  1.0630141022301D+00
   112  1.1100000000000D+00  3.3915380828940D-01  1.1009023387822D+00
   113  1.1200000000000D+00  3.1152218411245D-01  1.1383878330509D+00
   114  1.1300000000000D+00  2.8418186371562D-01  1.1753462875530D+00
   115  1.1400000000000D+00  2.5716945395658D-01  1.2116496199897D+00
   116  1.1500000000000D+00  2.3052102616152D-01  1.2471662684118D+00
   117  1.1600000000000D+00  2.0427211085358D-01  1.2817615262981D+00
   118  1.1700000000000D+00  1.7845769671168D-01  1.3152979101971D+00
   119  1.1800000000000D+00  1.5311223270866D-01  1.3476355628736D+00
   120  1.1900000000000D+00  1.2826963220206D-01  1.3786326951568D+00
   121  1.2000000000000D+00  1.0396327758608D-01  1.4081460698658D+00
   122  1.2100000000000D+00  8.0226024019169D-02  1.4360315313203D+00
   123  1.2200000000000D+00  5.7090200509090D-02  1.4621445841367D+00
   124  1.2300000000000D+00  3.4587606564807D-02  1.4863410249272D+00
   125  1.2400000000000D+00  1.2749502529726D-02  1.5084776305246D+00
   126  1.2500000000000D+00 -8.3934084217131D-03  1.5284129062735D+00
   127  1.2600000000000D+00 -2.8811008678344D-02  1.5460078974859D+00
   128  1.2700000000000D+00 -4.8473807036997D-02  1.5611270668846D+00
   129  1.2800000000000D+00 -6.7352994120740D-02  1.5736392405591D+00
   130  1.2900000000000D+00 -8.5420514364019D-02  1.5834186236689D+00
   131  1.3000000000000D+00 -1.0264915650054D-01  1.5903458867769D+00
   132  1.3100000000000D+00 -1.1901266445986D-01  1.5943093229542D+00
   133  1.3200000000000D+00 -1.3448587010599D-01  1.5952060730917D+00
   134  1.3300000000000D+00 -1.4904484930611D-01  1.5929434171874D+00
   135  1.3400000000000D+00 -1.6266710246743D-01  1.5874401271102D+00
   136  1.3500000000000D+00 -1.7533175973185D-01  1.5786278719237D+00
   137  1.3600000000000D+00 -1.8701981166374D-01  1.5664526697862D+00
   138  1.3700000000000D+00 -1.9771436463401D-01  1.5508763725623D+00
   139  1.3800000000000D+00 -2.0740091958536D-01  1.5318781673673D+00
   140  1.3900000000000D+00 -2.1606767354903D-01  1.5094560818502D+00
   141  1.4000000000000D+00 -2.2370583976095D-01  1.4836284648438D+00
   142  1.4100000000000D+00 -2.3030998409365D-01  1.4544354221427D+00
   143  1.4200000000000D+00 -2.3587837308267D-01  1.4219401764686D+00
   144  1.4300000000000D+00 -2.4041332611271D-01  1.3862303099183D+00
   145  1.4400000000000D+00 -2.4392156804736D-01  1.3474188620240D+00
   146  1.4500000000000D+00 -2.4641456951253D-01  1.3056452198152D+00
   147  1.4600000000000D+00 -2.4790886841836D-01  1.2610757621063D+00
   148  1.4700000000000D+00 -2.4842635902546D-01  1.2139041907210D+00
   149  1.4800000000000D+00 -2.4799453347838D-01  1.1643514764342D+00
   150  1.4900000000000D+00 -2.4664666514331D-01  1.1126653642236D+00
   151  1.5000000000000D+00 -2.4442190627492D-01  1.0591193170155D+00
   152  1.5100000000000D+00 -2.4136529199876D-01  1.0040108527196D+00
   153  1.5200000000000D+00 -2.3752761420036D-01  9.4765911908586D-01
   154  1.5300000000000D+00 -2.3296515039637D-01  8.9040163427772D-01
   155  1.5400000000000D+00 -2.2773921155078D-01  8.3259003925327D-01
   156  1.5500000000000D+00 -2.2191547811748D-01  7.7458472894759D-01
   157  1.5600000000000D+00 -2.1556307828280D-01  7.1674812007851D-01
   158  1.5700000000000D+00 -2.0875345808377D-01  6.5943707180057D-01
   159  1.5800000000000D+00 -2.0155859293535D-01  6.0299135396956D-01
   160  1.5900000000000D+00 -1.9404988299042D-01  5.4772755548288D-01
   161  1.6000000000000D+00 -1.8629478253305D-01  4.9391883305127D-01
   162  1.6100000000000D+00 -1.7835324496903D-01  4.4177273661126D-01
   163  1.6200000000000D+00 -1.7027867641285D-01  3.9144520565374D-01
   164  1.6300000000000D+00 -1.6211788227393D-01  3.4304683023383D-01
   165  1.6400000000000D+00 -1.5391401305292D-01  2.9666573040543D-01
   166  1.6500000000000D+00 -1.4570931997005D-01  2.5238982623225D-01
   167  1.6600000000000D+00 -1.3754370791399D-01  2.1029651561230D-01
   168  1.6700000000000D+00 -1.2945447399270D-01  1.7045065534369D-01
   169  1.6800000000000D+00 -1.2147655624211D-01  1.3290730778084D-01
   170  1.6900000000000D+00 -1.1364228352639D-01  9.7710164659203D-02
   171  1.7000000000000D+00 -1.0598136671990D-01  6.4891861440475D-02
   172  1.7100000000000D+00 -9.8520829711222D-02  3.4473765458124D-02
   173  1.7200000000000D+00 -9.1284970459429D-02  6.4659376185863D-03
   174  1.7300000000000D+00 -8.4295337650877D-02 -1.9132842309554D-02
   175  1.7400000000000D+00 -7.7570724070046D-02 -4.2334982086710D-02
   176  1.7500000000000D+00 -7.1127175421663D-02 -6.3163920543589D-02
   177  1.7600000000000D+00 -6.4978015845859D-02 -8.1653903007913D-02
   178  1.7700000000000D+00 -5.9133888294115D-02 -9.7849696495341D-02
   179  1.7800000000000D+00 -5.3602811220286D-02 -1.1180623853455D-01
   180  1.7900000000000D+00 -4.8390249137632D-02 -1.2358823007961D-01
   181  1.8000000000000D+00 -4.3499198664519D-02 -1.3326966571734D-01
   182  1.8100000000000D+00 -3.8930287272847D-02 -1.4093331299647D-01
   183  1.8200000000000D+00 -3.4681886032238D-02 -1.4667013552627D-01
   184  1.8300000000000D+00 -3.0750233835404D-02 -1.5057867048174D-01
   185  1.8400000000000D+00 -2.7129573601229D-02 -1.5276435854757D-01
   186  1.8500000000000D+00 -2.3812298545689D-02 -1.5333883437263D-01
   187  1.8600000000000D+00 -2.0789108069989D-02 -1.5241917954275D-01
   188  1.8700000000000D+00 -1.8049172047509D-02 -1.5012714325176D-01
   189  1.8800000000000D+00 -1.5580302184311D-02 -1.4658833630891D-01
   190  1.8900000000000D+00 -1.3369129783062D-02 -1.4193140140926D-01
   191  1.9000000000000D+00 -1.1401288024662D-02 -1.3628716759610D-01
   192  1.9100000000000D+00 -9.6615982663552D-03 -1.2978779117005D-01
   193  1.9200000000000D+00 -8.1342586964623D-03 -1.2256588983300D-01
   194  1.9300000000000D+00 -6.8030339275606D-03 -1.1475367655809D-01
   195  1.9400000000000D+00 -5.6514442599622D-03 -1.0648209844088D-01
   196  1.9500000000000D+00 -4.6629539949230D-03 -9.7879982627849D-02
   197  1.9600000000000D+00 -3.8211576729526D-03 -8.9073194110002D-02
   198  1.9700000000000D+00 -3.1099623870672D-03 -8.0183813686493D-02
   199  1.9800000000000D+00 -2.5137630896405D-03 -7.1329350094981D-02
   200  1.9900000000000D+00 -2.0176119013878D-03 -6.2621981369508D-02
   201  2.0000000000000D+00 -1.6073818254030D-03 -5.4167821205534D-02
   202  2.0100000000000D+00 -1.2699225245168D-03 -4.6066222697679D-02
   203  2.0200000000000D+00 -9.9320493069129D-04 -3.8409133458001D-02
   204  2.0300000000000D+00 -7.6645482367083D-04 -3.1280501188882D-02
   205  2.0400000000000D+00 -5.8027615119733D-04 -2.4755725883935D-02
   206  2.0500000000000D+00 -4.2687720039520D-04 -1.8905890695933D-02
   207  2.0600000000000D+00 -2.9971019591881D-04 -1.3778610734793D-02
   208  2.0700000000000D+00 -1.9400273361199D-04 -9.4070411268438D-03
   209  2.0800000000000D+00 -1.0706250263965D-04 -5.8394348423020D-03
   210  2.0900000000000D+00 -3.8303857548749D-05 -3.1634944172480D-03
   211  2.1000000000000D+00  1.2772010225948D-05 -1.4242213967959D-03
   212  2.1100000000000D+00  4.1803328210355D-05 -4.6109278311796D-04
   213  2.1200000000000D+00  4.5194632427998D-05 -4.5594358247992D-05
   214  2.1300000000000D+00  2.6861271018996D-05  5.4775048007516D-05
   215  2.1400000000000D+00  3.9688402448178D-06  1.2971855005846D-05
   216  2.1500000000000D+00 -5.9150779948024D-06 -2.3637372440553D-05
   217  2.1600000000000D+00 -4.5229325120716D-06 -2.0523795415109D-05
   218  2.1700000000000D+00  4.4711888135565D-07  1.2576046558938D-06
   219  2.1800000000000D+00  1.3600793417736D-06  4.2186590292734D-06
   220  2.1900000000000D+00  5.4236344312491D-07  1.8065388977166D-06
   221  2.2000000000000D+00 -9.9829410193152D-08  2.9723600892538D-07
   222  2.2100000000000D+00 -1.2265549516338D-07  3.6519929131695D-07
   223  2.2200000000000D+00 -1.3006377319203D-09  3.8725698944406D-09
   224  2.2300000000000D+00  0.0000000000000D+00  0.0000000000000D+00
   225  2.2400000000000D+00  0.0000000000000D+00  0.0000000000000D+00
   226  2.2500000000000D+00  0.0000000000000D+00  0.0000000000000D+00
   227  2.2600000000000D+00  0.0000000000000D+00  0.0000000000000D+00
   228  2.2700000000000D+00  0.0000000000000D+00  0.0000000000000D+00
   229  2.2800000000000D+00  0.0000000000000D+00  0.0000000000000D+00
   230  2.2900000000000D+00  0.0000000000000D+00  0.0000000000000D+00
   231  2.3000000000000D+00  0.0000000000000D+00  0.0000000000000D+00
   232  2.3100000000000D+00  0.0000000000000D+00  0.0000000000000D+00
   233  2.3200000000000D+00  0.0000000000000D+00  0.0000000000000D+00
   234  2.3300000000000D+00  0.0000000000000D+00  0.0000000000000D+00
   235  2.3400000000000D+00  0.0000000000000D+00  0.0000000000000D+00
   236  2.3500000000000D+00  0.0000000000000D+00  0.0000000000000D+00
   237  2.3600000000000D+00  0.0000000000000D+00  0.0000000000000D+00
   238  2.3700000000000D+00  0.0000000000000D+00  0.0000000000000D+00
   239  2.3800000000000D+00  0.0000000000000D+00  0.0000000000000D+00
   240  2.3900000000000D+00  0.0000000000000D+00  0.0000000000000D+00
   241  2.4000000000000D+00  0.0000000000000D+00  0.0000000000000D+00
   242  2.4100000000000D+00  0.0000000000000D+00  0.0000000000000D+00
   243  2.4200000000000D+00  0.0000000000000D+00  0.0000000000000D+00
   244  2.4300000000000D+00  0.0000000000000D+00  0.0000000000000D+00
   245  2.4400000000000D+00  0.0000000000000D+00  0.0000000000000D+00
   246  2.4500000000000D+00  0.0000000000000D+00  0.0000000000000D+00
   247  2.4600000000000D+00  0.0000000000000D+00  0.0000000000000D+00
   248  2.4700000000000D+00  0.0000000000000D+00  0.0000000000000D+00
   249  2.4800000000000D+00  0.0000000000000D+00  0.0000000000000D+00
   250  2.4900000000000D+00  0.0000000000000D+00  0.0000000000000D+00
   251  2.5000000000000D+00  0.0000000000000D+00  0.0000000000000D+00
   252  2.5100000000000D+00  0.0000000000000D+00  0.0000000000000D+00
   253  2.5200000000000D+00  0.0000000000000D+00  0.0000000000000D+00
   254  2.5300000000000D+00  0.0000000000000D+00  0.0000000000000D+00
   255  2.5400000000000D+00  0.0000000000000D+00  0.0000000000000D+00
   256  2.5500000000000D+00  0.0000000000000D+00  0.0000000000000D+00
   257  2.5600000000000D+00  0.0000000000000D+00  0.0000000000000D+00
   258  2.5700000000000D+00  0.0000000000000D+00  0.0000000000000D+00
   259  2.5800000000000D+00  0.0000000000000D+00  0.0000000000000D+00
   260  2.5900000000000D+00  0.0000000000000D+00  0.0000000000000D+00
   261  2.6000000000000D+00  0.0000000000000D+00  0.0000000000000D+00
   262  2.6100000000000D+00  0.0000000000000D+00  0.0000000000000D+00
   263  2.6200000000000D+00  0.0000000000000D+00  0.0000000000000D+00
   264  2.6300000000000D+00  0.0000000000000D+00  0.0000000000000D+00
   265  2.6400000000000D+00  0.0000000000000D+00  0.0000000000000D+00
   266  2.6500000000000D+00  0.0000000000000D+00  0.0000000000000D+00
   267  2.6600000000000D+00  0.0000000000000D+00  0.0000000000000D+00
   268  2.6700000000000D+00  0.0000000000000D+00  0.0000000000000D+00
   269  2.6800000000000D+00  0.0000000000000D+00  0.0000000000000D+00
   270  2.6900000000000D+00  0.0000000000000D+00  0.0000000000000D+00
   271  2.7000000000000D+00  0.0000000000000D+00  0.0000000000000D+00
   272  2.7100000000000D+00  0.0000000000000D+00  0.0000000000000D+00
   273  2.7200000000000D+00  0.0000000000000D+00  0.0000000000000D+00
   274  2.7300000000000D+00  0.0000000000000D+00  0.0000000000000D+00
   275  2.7400000000000D+00  0.0000000000000D+00  0.0000000000000D+00
   276  2.7500000000000D+00  0.0000000000000D+00  0.0000000000000D+00
   277  2.7600000000000D+00  0.0000000000000D+00  0.0000000000000D+00
   278  2.7700000000000D+00  0.0000000000000D+00  0.0000000000000D+00
   279  2.7800000000000D+00  0.0000000000000D+00  0.0000000000000D+00
   280  2.7900000000000D+00  0.0000000000000D+00  0.0000000000000D+00
   281  2.8000000000000D+00  0.0000000000000D+00  0.0000000000000D+00
   282  2.8100000000000D+00  0.0000000000000D+00  0.0000000000000D+00
   283  2.8200000000000D+00  0.0000000000000D+00  0.0000000000000D+00
   284  2.8300000000000D+00  0.0000000000000D+00  0.0000000000000D+00
   285  2.8400000000000D+00  0.0000000000000D+00  0.0000000000000D+00
   286  2.8500000000000D+00  0.0000000000000D+00  0.0000000000000D+00
   287  2.8600000000000D+00  0.0000000000000D+00  0.0000000000000D+00
   288  2.8700000000000D+00  0.0000000000000D+00  0.0000000000000D+00
   289  2.8800000000000D+00  0.0000000000000D+00  0.0000000000000D+00
   290  2.8900000000000D+00  0.0000000000000D+00  0.0000000000000D+00
   291  2.9000000000000D+00  0.0000000000000D+00  0.0000000000000D+00
   292  2.9100000000000D+00  0.0000000000000D+00  0.0000000000000D+00
   293  2.9200000000000D+00  0.0000000000000D+00  0.0000000000000D+00
   294  2.9300000000000D+00  0.0000000000000D+00  0.0000000000000D+00
   295  2.9400000000000D+00  0.0000000000000D+00  0.0000000000000D+00
   296  2.9500000000000D+00  0.0000000000000D+00  0.0000000000000D+00
   297  2.9600000000000D+00  0.0000000000000D+00  0.0000000000000D+00
   298  2.9700000000000D+00  0.0000000000000D+00  0.0000000000000D+00
   299  2.9800000000000D+00  0.0000000000000D+00  0.0000000000000D+00
   300  2.9900000000000D+00  0.0000000000000D+00  0.0000000000000D+00
   301  3.0000000000000D+00  0.0000000000000D+00  0.0000000000000D+00
   302  3.0100000000000D+00  0.0000000000000D+00  0.0000000000000D+00
   303  3.0200000000000D+00  0.0000000000000D+00  0.0000000000000D+00
   304  3.0300000000000D+00  0.0000000000000D+00  0.0000000000000D+00
   305  3.0400000000000D+00  0.0000000000000D+00  0.0000000000000D+00
   306  3.0500000000000D+00  0.0000000000000D+00  0.0000000000000D+00
   307  3.0600000000000D+00  0.0000000000000D+00  0.0000000000000D+00
   308  3.0700000000000D+00  0.0000000000000D+00  0.0000000000000D+00
   309  3.0800000000000D+00  0.0000000000000D+00  0.0000000000000D+00
   310  3.0900000000000D+00  0.0000000000000D+00  0.0000000000000D+00
   311  3.1000000000000D+00  0.0000000000000D+00  0.0000000000000D+00
   312  3.1100000000000D+00  0.0000000000000D+00  0.0000000000000D+00
   313  3.1200000000000D+00  0.0000000000000D+00  0.0000000000000D+00
   314  3.1300000000000D+00  0.0000000000000D+00  0.0000000000000D+00
   315  3.1400000000000D+00  0.0000000000000D+00  0.0000000000000D+00
   316  3.1500000000000D+00  0.0000000000000D+00  0.0000000000000D+00
   317  3.1600000000000D+00  0.0000000000000D+00  0.0000000000000D+00
   318  3.1700000000000D+00  0.0000000000000D+00  0.0000000000000D+00
   319  3.1800000000000D+00  0.0000000000000D+00  0.0000000000000D+00
   320  3.1900000000000D+00  0.0000000000000D+00  0.0000000000000D+00
   321  3.2000000000000D+00  0.0000000000000D+00  0.0000000000000D+00
   322  3.2100000000000D+00  0.0000000000000D+00  0.0000000000000D+00
   323  3.2200000000000D+00  0.0000000000000D+00  0.0000000000000D+00
   324  3.2300000000000D+00  0.0000000000000D+00  0.0000000000000D+00
   325  3.2400000000000D+00  0.0000000000000D+00  0.0000000000000D+00
   326  3.2500000000000D+00  0.0000000000000D+00  0.0000000000000D+00
   327  3.2600000000000D+00  0.0000000000000D+00  0.0000000000000D+00
   328  3.2700000000000D+00  0.0000000000000D+00  0.0000000000000D+00
   329  3.2800000000000D+00  0.0000000000000D+00  0.0000000000000D+00
   330  3.2900000000000D+00  0.0000000000000D+00  0.0000000000000D+00
   331  3.3000000000000D+00  0.0000000000000D+00  0.0000000000000D+00
   332  3.3100000000000D+00  0.0000000000000D+00  0.0000000000000D+00
   333  3.3200000000000D+00  0.0000000000000D+00  0.0000000000000D+00
   334  3.3300000000000D+00  0.0000000000000D+00  0.0000000000000D+00
   335  3.3400000000000D+00  0.0000000000000D+00  0.0000000000000D+00
   336  3.3500000000000D+00  0.0000000000000D+00  0.0000000000000D+00
   337  3.3600000000000D+00  0.0000000000000D+00  0.0000000000000D+00
   338  3.3700000000000D+00  0.0000000000000D+00  0.0000000000000D+00
   339  3.3800000000000D+00  0.0000000000000D+00  0.0000000000000D+00
   340  3.3900000000000D+00  0.0000000000000D+00  0.0000000000000D+00
   341  3.4000000000000D+00  0.0000000000000D+00  0.0000000000000D+00
   342  3.4100000000000D+00  0.0000000000000D+00  0.0000000000000D+00
   343  3.4200000000000D+00  0.0000000000000D+00  0.0000000000000D+00
   344  3.4300000000000D+00  0.0000000000000D+00  0.0000000000000D+00
   345  3.4400000000000D+00  0.0000000000000D+00  0.0000000000000D+00
   346  3.4500000000000D+00  0.0000000000000D+00  0.0000000000000D+00
   347  3.4600000000000D+00  0.0000000000000D+00  0.0000000000000D+00
   348  3.4700000000000D+00  0.0000000000000D+00  0.0000000000000D+00
   349  3.4800000000000D+00  0.0000000000000D+00  0.0000000000000D+00
   350  3.4900000000000D+00  0.0000000000000D+00  0.0000000000000D+00
   351  3.5000000000000D+00  0.0000000000000D+00  0.0000000000000D+00
   352  3.5100000000000D+00  0.0000000000000D+00  0.0000000000000D+00
   353  3.5200000000000D+00  0.0000000000000D+00  0.0000000000000D+00
   354  3.5300000000000D+00  0.0000000000000D+00  0.0000000000000D+00
   355  3.5400000000000D+00  0.0000000000000D+00  0.0000000000000D+00
   356  3.5500000000000D+00  0.0000000000000D+00  0.0000000000000D+00
   357  3.5600000000000D+00  0.0000000000000D+00  0.0000000000000D+00
   358  3.5700000000000D+00  0.0000000000000D+00  0.0000000000000D+00
   359  3.5800000000000D+00  0.0000000000000D+00  0.0000000000000D+00
   360  3.5900000000000D+00  0.0000000000000D+00  0.0000000000000D+00
   361  3.6000000000000D+00  0.0000000000000D+00  0.0000000000000D+00
   362  3.6100000000000D+00  0.0000000000000D+00  0.0000000000000D+00
   363  3.6200000000000D+00  0.0000000000000D+00  0.0000000000000D+00
   364  3.6300000000000D+00  0.0000000000000D+00  0.0000000000000D+00
   365  3.6400000000000D+00  0.0000000000000D+00  0.0000000000000D+00
   366  3.6500000000000D+00  0.0000000000000D+00  0.0000000000000D+00
   367  3.6600000000000D+00  0.0000000000000D+00  0.0000000000000D+00
   368  3.6700000000000D+00  0.0000000000000D+00  0.0000000000000D+00
   369  3.6800000000000D+00  0.0000000000000D+00  0.0000000000000D+00
   370  3.6900000000000D+00  0.0000000000000D+00  0.0000000000000D+00
   371  3.7000000000000D+00  0.0000000000000D+00  0.0000000000000D+00
   372  3.7100000000000D+00  0.0000000000000D+00  0.0000000000000D+00
   373  3.7200000000000D+00  0.0000000000000D+00  0.0000000000000D+00
   374  3.7300000000000D+00  0.0000000000000D+00  0.0000000000000D+00
   375  3.7400000000000D+00  0.0000000000000D+00  0.0000000000000D+00
   376  3.7500000000000D+00  0.0000000000000D+00  0.0000000000000D+00
   377  3.7600000000000D+00  0.0000000000000D+00  0.0000000000000D+00
   378  3.7700000000000D+00  0.0000000000000D+00  0.0000000000000D+00
   379  3.7800000000000D+00  0.0000000000000D+00  0.0000000000000D+00
   380  3.7900000000000D+00  0.0000000000000D+00  0.0000000000000D+00
   381  3.8000000000000D+00  0.0000000000000D+00  0.0000000000000D+00
   382  3.8100000000000D+00  0.0000000000000D+00  0.0000000000000D+00
   383  3.8200000000000D+00  0.0000000000000D+00  0.0000000000000D+00
   384  3.8300000000000D+00  0.0000000000000D+00  0.0000000000000D+00
   385  3.8400000000000D+00  0.0000000000000D+00  0.0000000000000D+00
   386  3.8500000000000D+00  0.0000000000000D+00  0.0000000000000D+00
   387  3.8600000000000D+00  0.0000000000000D+00  0.0000000000000D+00
   388  3.8700000000000D+00  0.0000000000000D+00  0.0000000000000D+00
   389  3.8800000000000D+00  0.0000000000000D+00  0.0000000000000D+00
   390  3.8900000000000D+00  0.0000000000000D+00  0.0000000000000D+00
   391  3.9000000000000D+00  0.0000000000000D+00  0.0000000000000D+00
   392  3.9100000000000D+00  0.0000000000000D+00  0.0000000000000D+00
   393  3.9200000000000D+00  0.0000000000000D+00  0.0000000000000D+00
   394  3.9300000000000D+00  0.0000000000000D+00  0.0000000000000D+00
   395  3.9400000000000D+00  0.0000000000000D+00  0.0000000000000D+00
   396  3.9500000000000D+00  0.0000000000000D+00  0.0000000000000D+00
   397  3.9600000000000D+00  0.0000000000000D+00  0.0000000000000D+00
   398  3.9700000000000D+00  0.0000000000000D+00  0.0000000000000D+00
   399  3.9800000000000D+00  0.0000000000000D+00  0.0000000000000D+00
   400  3.9900000000000D+00  0.0000000000000D+00  0.0000000000000D+00
   401  4.0000000000000D+00  0.0000000000000D+00  0.0000000000000D+00
   402  4.0100000000000D+00  0.0000000000000D+00  0.0000000000000D+00
   403  4.0200000000000D+00  0.0000000000000D+00  0.0000000000000D+00
   404  4.0300000000000D+00  0.0000000000000D+00  0.0000000000000D+00
   405  4.0400000000000D+00  0.0000000000000D+00  0.0000000000000D+00
   406  4.0500000000000D+00  0.0000000000000D+00  0.0000000000000D+00
   407  4.0600000000000D+00  0.0000000000000D+00  0.0000000000000D+00
   408  4.0700000000000D+00  0.0000000000000D+00  0.0000000000000D+00
   409  4.0800000000000D+00  0.0000000000000D+00  0.0000000000000D+00
   410  4.0900000000000D+00  0.0000000000000D+00  0.0000000000000D+00
   411  4.1000000000000D+00  0.0000000000000D+00  0.0000000000000D+00
   412  4.1100000000000D+00  0.0000000000000D+00  0.0000000000000D+00
   413  4.1200000000000D+00  0.0000000000000D+00  0.0000000000000D+00
   414  4.1300000000000D+00  0.0000000000000D+00  0.0000000000000D+00
   415  4.1400000000000D+00  0.0000000000000D+00  0.0000000000000D+00
   416  4.1500000000000D+00  0.0000000000000D+00  0.0000000000000D+00
   417  4.1600000000000D+00  0.0000000000000D+00  0.0000000000000D+00
   418  4.1700000000000D+00  0.0000000000000D+00  0.0000000000000D+00
   419  4.1800000000000D+00  0.0000000000000D+00  0.0000000000000D+00
   420  4.1900000000000D+00  0.0000000000000D+00  0.0000000000000D+00
   421  4.2000000000000D+00  0.0000000000000D+00  0.0000000000000D+00
   422  4.2100000000000D+00  0.0000000000000D+00  0.0000000000000D+00