Ge    ONCVPSP-3.3.0  r_core=   1.91022   1.82122   1.91022
     32.0000     14.0000      220117    zatom,zion,pspd
     8      11   2     4   600     0    pspcod,pspxc,lmax,lloc,mmax,r2well
  5.99000000  0.00000000  0.00000000    rchrg fchrg qchrg
     2     2     2     0     0    nproj
     1     1           extension_switch
   0                         6.3627631832066D+00  5.8870438411756D-01
     1  0.0000000000000D+00 -4.5418113714391D-12 -3.7286007614767D-12
     2  1.0000000000000D-02  3.5494408908129D-02 -2.2837008489841D-02
     3  2.0000000000000D-02  7.0957772912058D-02 -4.5635732736627D-02
     4  3.0000000000000D-02  1.0635910079485D-01 -6.8357917884089D-02
     5  4.0000000000000D-02  1.4166750849994D-01 -9.0965367957070D-02
     6  5.0000000000000D-02  1.7685227217711D-01 -1.1341997556993D-01
     7  6.0000000000000D-02  2.1188288059064D-01 -1.3568375195376D-01
     8  7.0000000000000D-02  2.4672908668219D-01 -1.5771885740413D-01
     9  8.0000000000000D-02  2.8136095808590D-01 -1.7948763224763D-01
    10  9.0000000000000D-02  3.1574892639829D-01 -2.0095262842039D-01
    11  1.0000000000000D-01  3.4986383501254D-01 -2.2207664174674D-01
    12  1.1000000000000D-01  3.8367698533445D-01 -2.4282274499932D-01
    13  1.2000000000000D-01  4.1716018120585D-01 -2.6315432181535D-01
    14  1.3000000000000D-01  4.5028577137103D-01 -2.8303510153529D-01
    15  1.4000000000000D-01  4.8302668983225D-01 -3.0242919502219D-01
    16  1.5000000000000D-01  5.1535649395170D-01 -3.2130113151019D-01
    17  1.6000000000000D-01  5.4724940016956D-01 -3.3961589652131D-01
    18  1.7000000000000D-01  5.7868031722047D-01 -3.5733897087910D-01
    19  1.8000000000000D-01  6.0962487674462D-01 -3.7443637083701D-01
    20  1.9000000000000D-01  6.4005946120326D-01 -3.9087468932811D-01
    21  2.0000000000000D-01  6.6996122902356D-01 -4.0662113833142D-01
    22  2.1000000000000D-01  6.9930813691259D-01 -4.2164359233832D-01
    23  2.2000000000000D-01  7.2807895929553D-01 -4.3591063289050D-01
    24  2.3000000000000D-01  7.5625330484915D-01 -4.4939159414914D-01
    25  2.4000000000000D-01  7.8381163011722D-01 -4.6205660944259D-01
    26  2.5000000000000D-01  8.1073525021082D-01 -4.7387665872845D-01
    27  2.6000000000000D-01  8.3700634661218D-01 -4.8482361689328D-01
    28  2.7000000000000D-01  8.6260797211693D-01 -4.9487030280238D-01
    29  2.8000000000000D-01  8.8752405296525D-01 -5.0399052899991D-01
    30  2.9000000000000D-01  9.1173938822807D-01 -5.1215915194924D-01
    31  3.0000000000000D-01  9.3523964652950D-01 -5.1935212269218D-01
    32  3.1000000000000D-01  9.5801136020171D-01 -5.2554653779614D-01
    33  3.2000000000000D-01  9.8004191698260D-01 -5.3072069044827D-01
    34  3.3000000000000D-01  1.0013195493802D+00 -5.3485412154659D-01
    35  3.4000000000000D-01  1.0218333218411D+00 -5.3792767063016D-01
    36  3.5000000000000D-01  1.0415731158720D+00 -5.3992352648211D-01
    37  3.6000000000000D-01  1.0605296132759D+00 -5.4082527723300D-01
    38  3.7000000000000D-01  1.0786942776725D+00 -5.4061795978519D-01
    39  3.8000000000000D-01  1.0960593344865D+00 -5.3928810837445D-01
    40  3.9000000000000D-01  1.1126177495902D+00 -5.3682380207974D-01
    41  4.0000000000000D-01  1.1283632067998D+00 -5.3321471108937D-01
    42  4.1000000000000D-01  1.1432900844270D+00 -5.2845214152841D-01
    43  4.2000000000000D-01  1.1573934310943D+00 -5.2252907865112D-01
    44  4.3000000000000D-01  1.1706689410277D+00 -5.1544022820112D-01
    45  4.4000000000000D-01  1.1831129290387D+00 -5.0718205574232D-01
    46  4.5000000000000D-01  1.1947223054141D+00 -4.9775282376481D-01
    47  4.6000000000000D-01  1.2054945509277D+00 -4.8715262637200D-01
    48  4.7000000000000D-01  1.2154276921895D+00 -4.7538342135848D-01
    49  4.8000000000000D-01  1.2245202775429D+00 -4.6244905949185D-01
    50  4.9000000000000D-01  1.2327713537186D+00 -4.4835531081684D-01
    51  5.0000000000000D-01  1.2401804434453D+00 -4.3310988780581D-01
    52  5.1000000000000D-01  1.2467475242143D+00 -4.1672246518623D-01
    53  5.2000000000000D-01  1.2524730083839D+00 -3.9920469628334D-01
    54  5.3000000000000D-01  1.2573577247997D+00 -3.8057022572439D-01
    55  5.4000000000000D-01  1.2614029021007D+00 -3.6083469835976D-01
    56  5.5000000000000D-01  1.2646101538615D+00 -3.4001576426616D-01
    57  5.6000000000000D-01  1.2669814657164D+00 -3.1813307970730D-01
    58  5.7000000000000D-01  1.2685191845897D+00 -2.9520830393842D-01
    59  5.8000000000000D-01  1.2692260101452D+00 -2.7126509175263D-01
    60  5.9000000000000D-01  1.2691049885511D+00 -2.4632908167899D-01
    61  6.0000000000000D-01  1.2681595086387D+00 -2.2042787975492D-01
    62  6.1000000000000D-01  1.2663933005150D+00 -1.9359103880802D-01
    63  6.2000000000000D-01  1.2638104366727D+00 -1.6585003319598D-01
    64  6.3000000000000D-01  1.2604153356199D+00 -1.3723822896656D-01
    65  6.4000000000000D-01  1.2562127680318D+00 -1.0779084941338D-01
    66  6.5000000000000D-01  1.2512078654102D+00 -7.7544936017053D-02
    67  6.6000000000000D-01  1.2454061312111D+00 -4.6539304775403D-02
    68  6.7000000000000D-01  1.2388134543843D+00 -1.4814497940190D-02
    69  6.8000000000000D-01  1.2314361252466D+00  1.7587268807734D-02
    70  6.9000000000000D-01  1.2232808535898D+00  5.0622163699487D-02
    71  7.0000000000000D-01  1.2143547889055D+00  8.4244800675565D-02
    72  7.1000000000000D-01  1.2046655425873D+00  1.1840830556670D-01
    73  7.2000000000000D-01  1.1942212119534D+00  1.5306438657105D-01
    74  7.3000000000000D-01  1.1830304059125D+00  1.8816340892794D-01
    75  7.4000000000000D-01  1.1711022720781D+00  2.2365447367502D-01
    76  7.5000000000000D-01  1.1584465251206D+00  2.5948550036314D-01
    77  7.6000000000000D-01  1.1450734761274D+00  2.9560331359106D-01
    78  7.7000000000000D-01  1.1309940627300D+00  3.3195373321001D-01
    79  7.8000000000000D-01  1.1162198797395D+00  3.6848166803698D-01
    80  7.9000000000000D-01  1.1007632100220D+00  4.0513121290417D-01
    81  8.0000000000000D-01  1.0846370553335D+00  4.4184574886195D-01
    82  8.1000000000000D-01  1.0678551668231D+00  4.7856804634249D-01
    83  8.2000000000000D-01  1.0504320749083D+00  5.1524037108143D-01
    84  8.3000000000000D-01  1.0323831182160D+00  5.5180459258670D-01
    85  8.4000000000000D-01  1.0137244712819D+00  5.8820229493432D-01
    86  8.5000000000000D-01  9.9447317069672D-01  6.2437488966395D-01
    87  8.6000000000000D-01  9.7464713938622D-01  6.6026373053902D-01
    88  8.7000000000000D-01  9.5426520871534D-01  6.9581022993008D-01
    89  8.8000000000000D-01  9.3334713810785D-01  7.3095597657345D-01
    90  8.9000000000000D-01  9.1191363187941D-01  7.6564285445196D-01
    91  9.0000000000000D-01  8.8998635298887D-01  7.9981316253936D-01
    92  9.1000000000000D-01  8.6758793342159D-01  8.3340973514577D-01
    93  9.2000000000000D-01  8.4474198093032D-01  8.6637606259734D-01
    94  9.3000000000000D-01  8.2147308187204D-01  8.9865641198034D-01
    95  9.4000000000000D-01  7.9780679989466D-01  9.3019594767688D-01
    96  9.5000000000000D-01  7.7376967024452D-01  9.6094085141722D-01
    97  9.6000000000000D-01  7.4938918948453D-01  9.9083844157215D-01
    98  9.7000000000000D-01  7.2469380043372D-01  1.0198372914076D+00
    99  9.8000000000000D-01  6.9971287216142D-01  1.0478873460226D+00
   100  9.9000000000000D-01  6.7447667489305D-01  1.0749400376928D+00
   101  1.0000000000000D+00  6.4901634971088D-01  1.1009483993401D+00
   102  1.0100000000000D+00  6.2336387295890D-01  1.1258671758516D+00
   103  1.0200000000000D+00  5.9755201528993D-01  1.1496529329718D+00
   104  1.0300000000000D+00  5.7161429532255D-01  1.1722641634927D+00
   105  1.0400000000000D+00  5.4558492790502D-01  1.1936613904708D+00
   106  1.0500000000000D+00  5.1949876701484D-01  1.2138072671999D+00
   107  1.0600000000000D+00  4.9339124335540D-01  1.2326666736753D+00
   108  1.0700000000000D+00  4.6729829674034D-01  1.2502068092844D+00
   109  1.0800000000000D+00  4.4125630339234D-01  1.2663972814666D+00
   110  1.0900000000000D+00  4.1530199831376D-01  1.2812101900871D+00
   111  1.1000000000000D+00  3.8947239291937D-01  1.2946202072753D+00
   112  1.1100000000000D+00  3.6380468815518D-01  1.3066046524847D+00
   113  1.1200000000000D+00  3.3833618335494D-01  1.3171435625345D+00
   114  1.1300000000000D+00  3.1310418112350D-01  1.3262197564019D+00
   115  1.1400000000000D+00  2.8814588856161D-01  1.3338188945389D+00
   116  1.1500000000000D+00  2.6349831518046D-01  1.3399295324969D+00
   117  1.1600000000000D+00  2.3919816787494D-01  1.3445431686468D+00
   118  1.1700000000000D+00  2.1528174336152D-01  1.3476542857919D+00
   119  1.1800000000000D+00  1.9178481850542D-01  1.3492603864826D+00
   120  1.1900000000000D+00  1.6874253898669D-01  1.3493620218440D+00
   121  1.2000000000000D+00  1.4618930677478D-01  1.3479628137432D+00
   122  1.2100000000000D+00  1.2415866690571D-01  1.3450694701300D+00
   123  1.2200000000000D+00  1.0268319407014D-01  1.3406917933981D+00
   124  1.2300000000000D+00  8.1794379531530D-02  1.3348426816189D+00
   125  1.2400000000000D+00  6.1522518915389D-02  1.3275381225175D+00
   126  1.2500000000000D+00  4.1896601413813D-02  1.3187971800736D+00
   127  1.2600000000000D+00  2.2944200956754D-02  1.3086419736326D+00
   128  1.2700000000000D+00  4.6913699108898D-03  1.2970976494365D+00
   129  1.2800000000000D+00 -1.2837464137011D-02  1.2841923444935D+00
   130  1.2900000000000D+00 -2.9619597953636D-02  1.2699571427164D+00
   131  1.3000000000000D+00 -4.5634148032605D-02  1.2544260232756D+00
   132  1.3100000000000D+00 -6.0862141228551D-02  1.2376358011366D+00
   133  1.3200000000000D+00 -7.5286600107477D-02  1.2196260597482D+00
   134  1.3300000000000D+00 -8.8892622490028D-02  1.2004390758805D+00
   135  1.3400000000000D+00 -1.0166745469628D-01  1.1801197366303D+00
   136  1.3500000000000D+00 -1.1360055797639D-01  1.1587154486008D+00
   137  1.3600000000000D+00 -1.2468366768382D-01  1.1362760393178D+00
   138  1.3700000000000D+00 -1.3491084475118D-01  1.1128536509398D+00
   139  1.3800000000000D+00 -1.4427851902398D-01  1.0885026263265D+00
   140  1.3900000000000D+00 -1.5278552411713D-01  1.0632793875888D+00
   141  1.4000000000000D+00 -1.6043312340009D-01  1.0372423072119D+00
   142  1.4100000000000D+00 -1.6722502680544D-01  1.0104515718941D+00
   143  1.4200000000000D+00 -1.7316739822075D-01  9.8296903927198D-01
   144  1.4300000000000D+00 -1.7826885313691D-01  9.5485808766335D-01
   145  1.4400000000000D+00 -1.8254044646020D-01  9.2618345906901D-01
   146  1.4500000000000D+00 -1.8599565024217D-01  8.9701109560297D-01
   147  1.4600000000000D+00 -1.8865032125360D-01  8.6740796959946D-01
   148  1.4700000000000D+00 -1.9052265836574D-01  8.3744190765575D-01
   149  1.4800000000000D+00 -1.9163314961144D-01  8.0718140883769D-01
   150  1.4900000000000D+00 -1.9200450911926D-01  7.7669545739897D-01
   151  1.5000000000000D+00 -1.9166160379431D-01  7.4605333024221D-01
   152  1.5100000000000D+00 -1.9063137005263D-01  7.1532439951590D-01
   153  1.5200000000000D+00 -1.8894272064345D-01  6.8457793063644D-01
   154  1.5300000000000D+00 -1.8662644183471D-01  6.5388287611676D-01
   155  1.5400000000000D+00 -1.8371508124555D-01  6.2330766558122D-01
   156  1.5500000000000D+00 -1.8024282653286D-01  5.9291999232422D-01
   157  1.5600000000000D+00 -1.7624537546589D-01  5.6278659687795D-01
   158  1.5700000000000D+00 -1.7175979753983D-01  5.3297304792917D-01
   159  1.5800000000000D+00 -1.6682438786754D-01  5.0354352111649D-01
   160  1.5900000000000D+00 -1.6147851351012D-01  4.7456057605383D-01
   161  1.6000000000000D+00 -1.5576245308153D-01  4.4608493213928D-01
   162  1.6100000000000D+00 -1.4971722990451D-01  4.1817524353448D-01
   163  1.6200000000000D+00 -1.4338443954873D-01  3.9088787386877D-01
   164  1.6300000000000D+00 -1.3680607218059D-01  3.6427667110200D-01
   165  1.6400000000000D+00 -1.3002433053679D-01  3.3839274309130D-01
   166  1.6500000000000D+00 -1.2308144407753D-01  3.1328423433328D-01
   167  1.6600000000000D+00 -1.1601948012220D-01  2.8899610442196D-01
   168  1.6700000000000D+00 -1.0888015261462D-01  2.6556990871835D-01
   169  1.6800000000000D+00 -1.0170462932255D-01  2.4304358177023D-01
   170  1.6900000000000D+00 -9.4533338173812D-02  2.2145122399013D-01
   171  1.7000000000000D+00 -8.7405772916940D-02  2.0082288838195D-01
   172  1.7100000000000D+00 -8.0360302344753D-02  1.8118438886524D-01
   173  1.7200000000000D+00 -7.3433972687298D-02  1.6255706477283D-01
   174  1.7300000000000D+00 -6.6662330596462D-02  1.4495765527333D-01
   175  1.7400000000000D+00 -6.0079245692049D-02  1.2839816615772D-01
   176  1.7500000000000D+00 -5.3716660716091D-02  1.1288528799588D-01
   177  1.7600000000000D+00 -4.7604445680098D-02  9.8420401368077D-02
   178  1.7700000000000D+00 -4.1770438093723D-02  8.5000701679908D-02
   179  1.7800000000000D+00 -3.6240429982018D-02  7.2619934594549D-02
   180  1.7900000000000D+00 -3.1038206485936D-02  6.1269267524087D-02
   181  1.8000000000000D+00 -2.6185620174112D-02  5.0938366674931D-02
   182  1.8100000000000D+00 -2.1702416366808D-02  4.1614919695309D-02
   183  1.8200000000000D+00 -1.7606106485214D-02  3.3284370783691D-02
   184  1.8300000000000D+00 -1.3911923742192D-02  2.5930172891475D-02
   185  1.8400000000000D+00 -1.0632726659343D-02  1.9533657204549D-02
   186  1.8500000000000D+00 -7.7804985292898D-03  1.4076323366278D-02
   187  1.8600000000000D+00 -5.3599125188032D-03  9.5305148853727D-03
   188  1.8700000000000D+00 -3.3702329473534D-03  5.8629299474760D-03
   189  1.8800000000000D+00 -1.8251229982870D-03  3.0612824878497D-03
   190  1.8900000000000D+00 -7.4513112497228D-04  1.1220898516777D-03
   191  1.9000000000000D+00 -1.1398671156737D-04 -5.0921853863396D-06
   192  1.9100000000000D+00  1.4793286562055D-04 -4.4412339611465D-04
   193  1.9200000000000D+00  1.4327605102105D-04 -3.5743503034688D-04
   194  1.9300000000000D+00  3.3863953464861D-05 -8.0470089018947D-05
   195  1.9400000000000D+00 -2.9912843985965D-05  7.0112914023944D-05
   196  1.9500000000000D+00 -2.2171485840539D-05  5.1225580795337D-05
   197  1.9600000000000D+00  3.6674164847573D-06 -8.8820482513957D-06
   198  1.9700000000000D+00  6.3313970760432D-06 -1.5219213437384D-05
   199  1.9800000000000D+00 -1.2577549816212D-08  3.7428418221197D-08
   200  1.9900000000000D+00 -4.2205130950764D-07  1.2559451684854D-06
   201  2.0000000000000D+00 -1.8291335514281D-07  5.4431567789959D-07
   202  2.0100000000000D+00  0.0000000000000D+00  0.0000000000000D+00
   203  2.0200000000000D+00  0.0000000000000D+00  0.0000000000000D+00
   204  2.0300000000000D+00  0.0000000000000D+00  0.0000000000000D+00
   205  2.0400000000000D+00  0.0000000000000D+00  0.0000000000000D+00
   206  2.0500000000000D+00  0.0000000000000D+00  0.0000000000000D+00
   207  2.0600000000000D+00  0.0000000000000D+00  0.0000000000000D+00
   208  2.0700000000000D+00  0.0000000000000D+00  0.0000000000000D+00
   209  2.0800000000000D+00  0.0000000000000D+00  0.0000000000000D+00
   210  2.0900000000000D+00  0.0000000000000D+00  0.0000000000000D+00
   211  2.1000000000000D+00  0.0000000000000D+00  0.0000000000000D+00
   212  2.1100000000000D+00  0.0000000000000D+00  0.0000000000000D+00
   213  2.1200000000000D+00  0.0000000000000D+00  0.0000000000000D+00
   214  2.1300000000000D+00  0.0000000000000D+00  0.0000000000000D+00
   215  2.1400000000000D+00  0.0000000000000D+00  0.0000000000000D+00
   216  2.1500000000000D+00  0.0000000000000D+00  0.0000000000000D+00
   217  2.1600000000000D+00  0.0000000000000D+00  0.0000000000000D+00
   218  2.1700000000000D+00  0.0000000000000D+00  0.0000000000000D+00
   219  2.1800000000000D+00  0.0000000000000D+00  0.0000000000000D+00
   220  2.1900000000000D+00  0.0000000000000D+00  0.0000000000000D+00
   221  2.2000000000000D+00  0.0000000000000D+00  0.0000000000000D+00
   222  2.2100000000000D+00  0.0000000000000D+00  0.0000000000000D+00
   223  2.2200000000000D+00  0.0000000000000D+00  0.0000000000000D+00
   224  2.2300000000000D+00  0.0000000000000D+00  0.0000000000000D+00
   225  2.2400000000000D+00  0.0000000000000D+00  0.0000000000000D+00
   226  2.2500000000000D+00  0.0000000000000D+00  0.0000000000000D+00
   227  2.2600000000000D+00  0.0000000000000D+00  0.0000000000000D+00
   228  2.2700000000000D+00  0.0000000000000D+00  0.0000000000000D+00
   229  2.2800000000000D+00  0.0000000000000D+00  0.0000000000000D+00
   230  2.2900000000000D+00  0.0000000000000D+00  0.0000000000000D+00
   231  2.3000000000000D+00  0.0000000000000D+00  0.0000000000000D+00
   232  2.3100000000000D+00  0.0000000000000D+00  0.0000000000000D+00
   233  2.3200000000000D+00  0.0000000000000D+00  0.0000000000000D+00
   234  2.3300000000000D+00  0.0000000000000D+00  0.0000000000000D+00
   235  2.3400000000000D+00  0.0000000000000D+00  0.0000000000000D+00
   236  2.3500000000000D+00  0.0000000000000D+00  0.0000000000000D+00
   237  2.3600000000000D+00  0.0000000000000D+00  0.0000000000000D+00
   238  2.3700000000000D+00  0.0000000000000D+00  0.0000000000000D+00
   239  2.3800000000000D+00  0.0000000000000D+00  0.0000000000000D+00
   240  2.3900000000000D+00  0.0000000000000D+00  0.0000000000000D+00
   241  2.4000000000000D+00  0.0000000000000D+00  0.0000000000000D+00
   242  2.4100000000000D+00  0.0000000000000D+00  0.0000000000000D+00
   243  2.4200000000000D+00  0.0000000000000D+00  0.0000000000000D+00
   244  2.4300000000000D+00  0.0000000000000D+00  0.0000000000000D+00
   245  2.4400000000000D+00  0.0000000000000D+00  0.0000000000000D+00
   246  2.4500000000000D+00  0.0000000000000D+00  0.0000000000000D+00
   247  2.4600000000000D+00  0.0000000000000D+00  0.0000000000000D+00
   248  2.4700000000000D+00  0.0000000000000D+00  0.0000000000000D+00
   249  2.4800000000000D+00  0.0000000000000D+00  0.0000000000000D+00
   250  2.4900000000000D+00  0.0000000000000D+00  0.0000000000000D+00
   251  2.5000000000000D+00  0.0000000000000D+00  0.0000000000000D+00
   252  2.5100000000000D+00  0.0000000000000D+00  0.0000000000000D+00
   253  2.5200000000000D+00  0.0000000000000D+00  0.0000000000000D+00
   254  2.5300000000000D+00  0.0000000000000D+00  0.0000000000000D+00
   255  2.5400000000000D+00  0.0000000000000D+00  0.0000000000000D+00
   256  2.5500000000000D+00  0.0000000000000D+00  0.0000000000000D+00
   257  2.5600000000000D+00  0.0000000000000D+00  0.0000000000000D+00
   258  2.5700000000000D+00  0.0000000000000D+00  0.0000000000000D+00
   259  2.5800000000000D+00  0.0000000000000D+00  0.0000000000000D+00
   260  2.5900000000000D+00  0.0000000000000D+00  0.0000000000000D+00
   261  2.6000000000000D+00  0.0000000000000D+00  0.0000000000000D+00
   262  2.6100000000000D+00  0.0000000000000D+00  0.0000000000000D+00
   263  2.6200000000000D+00  0.0000000000000D+00  0.0000000000000D+00
   264  2.6300000000000D+00  0.0000000000000D+00  0.0000000000000D+00
   265  2.6400000000000D+00  0.0000000000000D+00  0.0000000000000D+00
   266  2.6500000000000D+00  0.0000000000000D+00  0.0000000000000D+00
   267  2.6600000000000D+00  0.0000000000000D+00  0.0000000000000D+00
   268  2.6700000000000D+00  0.0000000000000D+00  0.0000000000000D+00
   269  2.6800000000000D+00  0.0000000000000D+00  0.0000000000000D+00
   270  2.6900000000000D+00  0.0000000000000D+00  0.0000000000000D+00
   271  2.7000000000000D+00  0.0000000000000D+00  0.0000000000000D+00
   272  2.7100000000000D+00  0.0000000000000D+00  0.0000000000000D+00
   273  2.7200000000000D+00  0.0000000000000D+00  0.0000000000000D+00
   274  2.7300000000000D+00  0.0000000000000D+00  0.0000000000000D+00
   275  2.7400000000000D+00  0.0000000000000D+00  0.0000000000000D+00
   276  2.7500000000000D+00  0.0000000000000D+00  0.0000000000000D+00
   277  2.7600000000000D+00  0.0000000000000D+00  0.0000000000000D+00
   278  2.7700000000000D+00  0.0000000000000D+00  0.0000000000000D+00
   279  2.7800000000000D+00  0.0000000000000D+00  0.0000000000000D+00
   280  2.7900000000000D+00  0.0000000000000D+00  0.0000000000000D+00
   281  2.8000000000000D+00  0.0000000000000D+00  0.0000000000000D+00
   282  2.8100000000000D+00  0.0000000000000D+00  0.0000000000000D+00
   283  2.8200000000000D+00  0.0000000000000D+00  0.0000000000000D+00
   284  2.8300000000000D+00  0.0000000000000D+00  0.0000000000000D+00
   285  2.8400000000000D+00  0.0000000000000D+00  0.0000000000000D+00
   286  2.8500000000000D+00  0.0000000000000D+00  0.0000000000000D+00
   287  2.8600000000000D+00  0.0000000000000D+00  0.0000000000000D+00
   288  2.8700000000000D+00  0.0000000000000D+00  0.0000000000000D+00
   289  2.8800000000000D+00  0.0000000000000D+00  0.0000000000000D+00
   290  2.8900000000000D+00  0.0000000000000D+00  0.0000000000000D+00
   291  2.9000000000000D+00  0.0000000000000D+00  0.0000000000000D+00
   292  2.9100000000000D+00  0.0000000000000D+00  0.0000000000000D+00
   293  2.9200000000000D+00  0.0000000000000D+00  0.0000000000000D+00
   294  2.9300000000000D+00  0.0000000000000D+00  0.0000000000000D+00
   295  2.9400000000000D+00  0.0000000000000D+00  0.0000000000000D+00
   296  2.9500000000000D+00  0.0000000000000D+00  0.0000000000000D+00
   297  2.9600000000000D+00  0.0000000000000D+00  0.0000000000000D+00
   298  2.9700000000000D+00  0.0000000000000D+00  0.0000000000000D+00
   299  2.9800000000000D+00  0.0000000000000D+00  0.0000000000000D+00
   300  2.9900000000000D+00  0.0000000000000D+00  0.0000000000000D+00
   301  3.0000000000000D+00  0.0000000000000D+00  0.0000000000000D+00
   302  3.0100000000000D+00  0.0000000000000D+00  0.0000000000000D+00
   303  3.0200000000000D+00  0.0000000000000D+00  0.0000000000000D+00
   304  3.0300000000000D+00  0.0000000000000D+00  0.0000000000000D+00
   305  3.0400000000000D+00  0.0000000000000D+00  0.0000000000000D+00
   306  3.0500000000000D+00  0.0000000000000D+00  0.0000000000000D+00
   307  3.0600000000000D+00  0.0000000000000D+00  0.0000000000000D+00
   308  3.0700000000000D+00  0.0000000000000D+00  0.0000000000000D+00
   309  3.0800000000000D+00  0.0000000000000D+00  0.0000000000000D+00
   310  3.0900000000000D+00  0.0000000000000D+00  0.0000000000000D+00
   311  3.1000000000000D+00  0.0000000000000D+00  0.0000000000000D+00
   312  3.1100000000000D+00  0.0000000000000D+00  0.0000000000000D+00
   313  3.1200000000000D+00  0.0000000000000D+00  0.0000000000000D+00
   314  3.1300000000000D+00  0.0000000000000D+00  0.0000000000000D+00
   315  3.1400000000000D+00  0.0000000000000D+00  0.0000000000000D+00
   316  3.1500000000000D+00  0.0000000000000D+00  0.0000000000000D+00
   317  3.1600000000000D+00  0.0000000000000D+00  0.0000000000000D+00
   318  3.1700000000000D+00  0.0000000000000D+00  0.0000000000000D+00
   319  3.1800000000000D+00  0.0000000000000D+00  0.0000000000000D+00
   320  3.1900000000000D+00  0.0000000000000D+00  0.0000000000000D+00
   321  3.2000000000000D+00  0.0000000000000D+00  0.0000000000000D+00
   322  3.2100000000000D+00  0.0000000000000D+00  0.0000000000000D+00
   323  3.2200000000000D+00  0.0000000000000D+00  0.0000000000000D+00
   324  3.2300000000000D+00  0.0000000000000D+00  0.0000000000000D+00
   325  3.2400000000000D+00  0.0000000000000D+00  0.0000000000000D+00
   326  3.2500000000000D+00  0.0000000000000D+00  0.0000000000000D+00
   327  3.2600000000000D+00  0.0000000000000D+00  0.0000000000000D+00
   328  3.2700000000000D+00  0.0000000000000D+00  0.0000000000000D+00
   329  3.2800000000000D+00  0.0000000000000D+00  0.0000000000000D+00
   330  3.2900000000000D+00  0.0000000000000D+00  0.0000000000000D+00
   331  3.3000000000000D+00  0.0000000000000D+00  0.0000000000000D+00
   332  3.3100000000000D+00  0.0000000000000D+00  0.0000000000000D+00
   333  3.3200000000000D+00  0.0000000000000D+00  0.0000000000000D+00
   334  3.3300000000000D+00  0.0000000000000D+00  0.0000000000000D+00
   335  3.3400000000000D+00  0.0000000000000D+00  0.0000000000000D+00
   336  3.3500000000000D+00  0.0000000000000D+00  0.0000000000000D+00
   337  3.3600000000000D+00  0.0000000000000D+00  0.0000000000000D+00
   338  3.3700000000000D+00  0.0000000000000D+00  0.0000000000000D+00
   339  3.3800000000000D+00  0.0000000000000D+00  0.0000000000000D+00
   340  3.3900000000000D+00  0.0000000000000D+00  0.0000000000000D+00
   341  3.4000000000000D+00  0.0000000000000D+00  0.0000000000000D+00
   342  3.4100000000000D+00  0.0000000000000D+00  0.0000000000000D+00
   343  3.4200000000000D+00  0.0000000000000D+00  0.0000000000000D+00
   344  3.4300000000000D+00  0.0000000000000D+00  0.0000000000000D+00
   345  3.4400000000000D+00  0.0000000000000D+00  0.0000000000000D+00
   346  3.4500000000000D+00  0.0000000000000D+00  0.0000000000000D+00
   347  3.4600000000000D+00  0.0000000000000D+00  0.0000000000000D+00
   348  3.4700000000000D+00  0.0000000000000D+00  0.0000000000000D+00
   349  3.4800000000000D+00  0.0000000000000D+00  0.0000000000000D+00
   350  3.4900000000000D+00  0.0000000000000D+00  0.0000000000000D+00
   351  3.5000000000000D+00  0.0000000000000D+00  0.0000000000000D+00
   352  3.5100000000000D+00  0.0000000000000D+00  0.0000000000000D+00
   353  3.5200000000000D+00  0.0000000000000D+00  0.0000000000000D+00
   354  3.5300000000000D+00  0.0000000000000D+00  0.0000000000000D+00
   355  3.5400000000000D+00  0.0000000000000D+00  0.0000000000000D+00
   356  3.5500000000000D+00  0.0000000000000D+00  0.0000000000000D+00
   357  3.5600000000000D+00  0.0000000000000D+00  0.0000000000000D+00
   358  3.5700000000000D+00  0.0000000000000D+00  0.0000000000000D+00
   359  3.5800000000000D+00  0.0000000000000D+00  0.0000000000000D+00
   360  3.5900000000000D+00  0.0000000000000D+00  0.0000000000000D+00
   361  3.6000000000000D+00  0.0000000000000D+00  0.0000000000000D+00
   362  3.6100000000000D+00  0.0000000000000D+00  0.0000000000000D+00
   363  3.6200000000000D+00  0.0000000000000D+00  0.0000000000000D+00
   364  3.6300000000000D+00  0.0000000000000D+00  0.0000000000000D+00
   365  3.6400000000000D+00  0.0000000000000D+00  0.0000000000000D+00
   366  3.6500000000000D+00  0.0000000000000D+00  0.0000000000000D+00
   367  3.6600000000000D+00  0.0000000000000D+00  0.0000000000000D+00
   368  3.6700000000000D+00  0.0000000000000D+00  0.0000000000000D+00
   369  3.6800000000000D+00  0.0000000000000D+00  0.0000000000000D+00
   370  3.6900000000000D+00  0.0000000000000D+00  0.0000000000000D+00
   371  3.7000000000000D+00  0.0000000000000D+00  0.0000000000000D+00
   372  3.7100000000000D+00  0.0000000000000D+00  0.0000000000000D+00
   373  3.7200000000000D+00  0.0000000000000D+00  0.0000000000000D+00
   374  3.7300000000000D+00  0.0000000000000D+00  0.0000000000000D+00
   375  3.7400000000000D+00  0.0000000000000D+00  0.0000000000000D+00
   376  3.7500000000000D+00  0.0000000000000D+00  0.0000000000000D+00
   377  3.7600000000000D+00  0.0000000000000D+00  0.0000000000000D+00
   378  3.7700000000000D+00  0.0000000000000D+00  0.0000000000000D+00
   379  3.7800000000000D+00  0.0000000000000D+00  0.0000000000000D+00
   380  3.7900000000000D+00  0.0000000000000D+00  0.0000000000000D+00
   381  3.8000000000000D+00  0.0000000000000D+00  0.0000000000000D+00
   382  3.8100000000000D+00  0.0000000000000D+00  0.0000000000000D+00
   383  3.8200000000000D+00  0.0000000000000D+00  0.0000000000000D+00
   384  3.8300000000000D+00  0.0000000000000D+00  0.0000000000000D+00
   385  3.8400000000000D+00  0.0000000000000D+00  0.0000000000000D+00
   386  3.8500000000000D+00  0.0000000000000D+00  0.0000000000000D+00
   387  3.8600000000000D+00  0.0000000000000D+00  0.0000000000000D+00
   388  3.8700000000000D+00  0.0000000000000D+00  0.0000000000000D+00
   389  3.8800000000000D+00  0.0000000000000D+00  0.0000000000000D+00
   390  3.8900000000000D+00  0.0000000000000D+00  0.0000000000000D+00
   391  3.9000000000000D+00  0.0000000000000D+00  0.0000000000000D+00
   392  3.9100000000000D+00  0.0000000000000D+00  0.0000000000000D+00
   393  3.9200000000000D+00  0.0000000000000D+00  0.0000000000000D+00
   394  3.9300000000000D+00  0.0000000000000D+00  0.0000000000000D+00
   395  3.9400000000000D+00  0.0000000000000D+00  0.0000000000000D+00
   396  3.9500000000000D+00  0.0000000000000D+00  0.0000000000000D+00
   397  3.9600000000000D+00  0.0000000000000D+00  0.0000000000000D+00
   398  3.9700000000000D+00  0.0000000000000D+00  0.0000000000000D+00
   399  3.9800000000000D+00  0.0000000000000D+00  0.0000000000000D+00
   400  3.9900000000000D+00  0.0000000000000D+00  0.0000000000000D+00
   401  4.0000000000000D+00  0.0000000000000D+00  0.0000000000000D+00
   402  4.0100000000000D+00  0.0000000000000D+00  0.0000000000000D+00
   403  4.0200000000000D+00  0.0000000000000D+00  0.0000000000000D+00
   404  4.0300000000000D+00  0.0000000000000D+00  0.0000000000000D+00
   405  4.0400000000000D+00  0.0000000000000D+00  0.0000000000000D+00
   406  4.0500000000000D+00  0.0000000000000D+00  0.0000000000000D+00
   407  4.0600000000000D+00  0.0000000000000D+00  0.0000000000000D+00
   408  4.0700000000000D+00  0.0000000000000D+00  0.0000000000000D+00
   409  4.0800000000000D+00  0.0000000000000D+00  0.0000000000000D+00
   410  4.0900000000000D+00  0.0000000000000D+00  0.0000000000000D+00
   411  4.1000000000000D+00  0.0000000000000D+00  0.0000000000000D+00
   412  4.1100000000000D+00  0.0000000000000D+00  0.0000000000000D+00
   413  4.1200000000000D+00  0.0000000000000D+00  0.0000000000000D+00
   414  4.1300000000000D+00  0.0000000000000D+00  0.0000000000000D+00
   415  4.1400000000000D+00  0.0000000000000D+00  0.0000000000000D+00
   416  4.1500000000000D+00  0.0000000000000D+00  0.0000000000000D+00
   417  4.1600000000000D+00  0.0000000000000D+00  0.0000000000000D+00
   418  4.1700000000000D+00  0.0000000000000D+00  0.0000000000000D+00
   419  4.1800000000000D+00  0.0000000000000D+00  0.0000000000000D+00
   420  4.1900000000000D+00  0.0000000000000D+00  0.0000000000000D+00
   421  4.2000000000000D+00  0.0000000000000D+00  0.0000000000000D+00
   422  4.2100000000000D+00  0.0000000000000D+00  0.0000000000000D+00