Ge    ONCVPSP-3.3.0  r_core=   1.82122   1.71577   2.20419
     32.0000      4.0000      220117    zatom,zion,pspd
     8      11   2     4   600     0    pspcod,pspxc,lmax,lloc,mmax,r2well
  5.99000000  0.00000000  0.00000000    rchrg fchrg qchrg
     2     2     2     0     0    nproj
     1     1           extension_switch
   0                         6.5588443058556D+00  6.5934846628805D-01
     1  0.0000000000000D+00  1.3973350254659D-11 -2.9279842439500D-11
     2  1.0000000000000D-02  2.7728576260261D-02 -1.1767499972235D-02
     3  2.0000000000000D-02  5.5461610700675D-02 -2.3551775949558D-02
     4  3.0000000000000D-02  8.3203436933393D-02 -3.5369360686453D-02
     5  4.0000000000000D-02  1.1095814014455D-01 -4.7236301896724D-02
     6  5.0000000000000D-02  1.3872943465272D-01 -5.9167923376989D-02
     7  6.0000000000000D-02  1.6652054358319D-01 -7.1178590482089D-02
     8  7.0000000000000D-02  1.9433408134696D-01 -8.3281481368576D-02
     9  8.0000000000000D-02  2.2217193959931D-01 -9.5488365393207D-02
    10  9.0000000000000D-02  2.5003517733539D-01 -1.0780939001683D-01
    11  1.0000000000000D-01  2.7792391575971D-01 -1.2025287752090D-01
    12  1.1000000000000D-01  3.0583723854252D-01 -1.3282513279380D-01
    13  1.2000000000000D-01  3.3377309804894D-01 -1.4553026338732D-01
    14  1.3000000000000D-01  3.6172822809712D-01 -1.5837001298141D-01
    15  1.4000000000000D-01  3.8969806376852D-01 -1.7134360932610D-01
    16  1.5000000000000D-01  4.1767666875837D-01 -1.8444762765541D-01
    17  1.6000000000000D-01  4.4565667071603D-01 -1.9767587048823D-01
    18  1.7000000000000D-01  4.7362920498499D-01 -2.1101926464680D-01
    19  1.8000000000000D-01  5.0158386710955D-01 -2.2446577623404D-01
    20  1.9000000000000D-01  5.2950867443106D-01 -2.3800034421782D-01
    21  2.0000000000000D-01  5.5739003705016D-01 -2.5160483317351D-01
    22  2.1000000000000D-01  5.8521273838402D-01 -2.6525800563555D-01
    23  2.2000000000000D-01  6.1295992549862D-01 -2.7893551440637D-01
    24  2.3000000000000D-01  6.4061310934583D-01 -2.9260991506542D-01
    25  2.4000000000000D-01  6.6815217498441D-01 -3.0625069881410D-01
    26  2.5000000000000D-01  6.9555540181264D-01 -3.1982434568441D-01
    27  2.6000000000000D-01  7.2279949378833D-01 -3.3329439803021D-01
    28  2.7000000000000D-01  7.4985961956024D-01 -3.4662155411018D-01
    29  2.8000000000000D-01  7.7670946238335D-01 -3.5976378146387D-01
    30  2.9000000000000D-01  8.0332127963899D-01 -3.7267644967339D-01
    31  3.0000000000000D-01  8.2966597173056D-01 -3.8531248199719D-01
    32  3.1000000000000D-01  8.5571316007579D-01 -3.9762252525783D-01
    33  3.2000000000000D-01  8.8143127386819D-01 -4.0955513726381D-01
    34  3.3000000000000D-01  9.0678764523343D-01 -4.2105699094600D-01
    35  3.4000000000000D-01  9.3174861236108D-01 -4.3207309429438D-01
    36  3.5000000000000D-01  9.5627963014889D-01 -4.4254702508906D-01
    37  3.6000000000000D-01  9.8034538785555D-01 -4.5242117933272D-01
    38  3.7000000000000D-01  1.0039099332193D+00 -4.6163703221009D-01
    39  3.8000000000000D-01  1.0269368024630D+00 -4.7013541032288D-01
    40  3.9000000000000D-01  1.0493891555740D+00 -4.7785677387949D-01
    41  4.0000000000000D-01  1.0712299162147D+00 -4.8474150745325D-01
    42  4.1000000000000D-01  1.0924219155955D+00 -4.9073021786623D-01
    43  4.2000000000000D-01  1.1129280396144D+00 -4.9576403770513D-01
    44  4.3000000000000D-01  1.1327113785487D+00 -4.9978493293251D-01
    45  4.4000000000000D-01  1.1517353785688D+00 -5.0273601302108D-01
    46  4.5000000000000D-01  1.1699639943272D+00 -5.0456184201147D-01
    47  4.6000000000000D-01  1.1873618418694D+00 -5.0520874887392D-01
    48  4.7000000000000D-01  1.2038943511062D+00 -5.0462513554346D-01
    49  4.8000000000000D-01  1.2195279170863D+00 -5.0276178099521D-01
    50  4.9000000000000D-01  1.2342300493081D+00 -4.9957213973154D-01
    51  5.0000000000000D-01  1.2479695183191D+00 -4.9501263306772D-01
    52  5.1000000000000D-01  1.2607164988581D+00 -4.8904293162444D-01
    53  5.2000000000000D-01  1.2724427088110D+00 -4.8162622746742D-01
    54  5.3000000000000D-01  1.2831215432695D+00 -4.7272949437308D-01
    55  5.4000000000000D-01  1.2927282030015D+00 -4.6232373474742D-01
    56  5.5000000000000D-01  1.3012398166698D+00 -4.5038421178065D-01
    57  5.6000000000000D-01  1.3086355561627D+00 -4.3689066548396D-01
    58  5.7000000000000D-01  1.3148967444341D+00 -4.2182751132583D-01
    59  5.8000000000000D-01  1.3200069552845D+00 -4.0518402026330D-01
    60  5.9000000000000D-01  1.3239521045554D+00 -3.8695447904942D-01
    61  6.0000000000000D-01  1.3267205322495D+00 -3.6713832978990D-01
    62  6.1000000000000D-01  1.3283030751348D+00 -3.4574028781884D-01
    63  6.2000000000000D-01  1.3286931294367D+00 -3.2277043706796D-01
    64  6.3000000000000D-01  1.3278867032731D+00 -2.9824430221164D-01
    65  6.4000000000000D-01  1.3258824585360D+00 -2.7218289698296D-01
    66  6.5000000000000D-01  1.3226817419804D+00 -2.4461274817337D-01
    67  6.6000000000000D-01  1.3182886053306D+00 -2.1556589494831D-01
    68  6.7000000000000D-01  1.3127098142749D+00 -1.8507986323456D-01
    69  6.8000000000000D-01  1.3059548462715D+00 -1.5319761506035D-01
    70  6.9000000000000D-01  1.2980358771496D+00 -1.1996747285538D-01
    71  7.0000000000000D-01  1.2889677565437D+00 -8.5443018845202D-02
    72  7.1000000000000D-01  1.2787679722592D+00 -4.9682969802724D-02
    73  7.2000000000000D-01  1.2674566037217D+00 -1.2751027545002D-02
    74  7.3000000000000D-01  1.2550562647212D+00  2.5284294310019D-02
    75  7.4000000000000D-01  1.2415920357143D+00  6.4349866689522D-02
    76  7.5000000000000D-01  1.2270913860057D+00  1.0436816375570D-01
    77  7.6000000000000D-01  1.2115840861783D+00  1.4525750306418D-01
    78  7.7000000000000D-01  1.1951021111933D+00  1.8693230620167D-01
    79  7.8000000000000D-01  1.1776795346310D+00  2.2930337880540D-01
    80  7.9000000000000D-01  1.1593524145848D+00  2.7227820876306D-01
    81  8.0000000000000D-01  1.1401586717688D+00  3.1576128129523D-01
    82  8.1000000000000D-01  1.1201379604336D+00  3.5965440953039D-01
    83  8.2000000000000D-01  1.0993315327257D+00  4.0385707909989D-01
    84  8.3000000000000D-01  1.0777820971564D+00  4.4826680520254D-01
    85  8.4000000000000D-01  1.0555336718765D+00  4.9277950052057D-01
    86  8.5000000000000D-01  1.0326314334779D+00  5.3728985230891D-01
    87  8.6000000000000D-01  1.0091215620650D+00  5.8169170692710D-01
    88  8.7000000000000D-01  9.8505108335632D-01  6.2587846004213D-01
    89  8.8000000000000D-01  9.6046770858895D-01  6.6974345069617D-01
    90  8.9000000000000D-01  9.3541967300835D-01  7.1318035741000D-01
    91  9.0000000000000D-01  9.0995557372950D-01  7.5608359447894D-01
    92  9.1000000000000D-01  8.8412420775571D-01  7.9834870661381D-01
    93  9.2000000000000D-01  8.5797441093729D-01  8.3987276008423D-01
    94  9.3000000000000D-01  8.3155489864288D-01  8.8055472853793D-01
    95  9.4000000000000D-01  8.0491410890366D-01  9.2029587169352D-01
    96  9.5000000000000D-01  7.7810004877315D-01  9.5900010513906D-01
    97  9.6000000000000D-01  7.5116014462386D-01  9.9657435951277D-01
    98  9.7000000000000D-01  7.2414109707660D-01  1.0329289273940D+00
    99  9.8000000000000D-01  6.9708874122910D-01  1.0679777962948D+00
   100  9.9000000000000D-01  6.7004791281756D-01  1.1016389662131D+00
   101  1.0000000000000D+00  6.4306232090813D-01  1.1338347502839D+00
   102  1.0100000000000D+00  6.1617442767659D-01  1.1644920571537D+00
   103  1.0200000000000D+00  5.8942533579121D-01  1.1935426537913D+00
   104  1.0300000000000D+00  5.6285468386869D-01  1.2209234075516D+00
   105  1.0400000000000D+00  5.3650055042553D-01  1.2465765064106D+00
   106  1.0500000000000D+00  5.1039936669824D-01  1.2704496563983D+00
   107  1.0600000000000D+00  4.8458583865118D-01  1.2924962553792D+00
   108  1.0700000000000D+00  4.5909287844425D-01  1.3126755424299D+00
   109  1.0800000000000D+00  4.3395154557137D-01  1.3309527222064D+00
   110  1.0900000000000D+00  4.0919099783051D-01  1.3472990638010D+00
   111  1.1000000000000D+00  3.8483845222929D-01  1.3616919737208D+00
   112  1.1100000000000D+00  3.6091915587281D-01  1.3741150427501D+00
   113  1.1200000000000D+00  3.3745636683335D-01  1.3845580665645D+00
   114  1.1300000000000D+00  3.1447134493549D-01  1.3930170401203D+00
   115  1.1400000000000D+00  2.9198335234635D-01  1.3994941259405D+00
   116  1.1500000000000D+00  2.7000966380012D-01  1.4039975965646D+00
   117  1.1600000000000D+00  2.4856558625061D-01  1.4065417515088D+00
   118  1.1700000000000D+00  2.2766448767786D-01  1.4071468092476D+00
   119  1.1800000000000D+00  2.0731783474112D-01  1.4058387748059D+00
   120  1.1900000000000D+00  1.8753523892426D-01  1.4026492836655D+00
   121  1.2000000000000D+00  1.6832451078275D-01  1.3976154227794D+00
   122  1.2100000000000D+00  1.4969172185421D-01  1.3907795296054D+00
   123  1.2200000000000D+00  1.3164127376541D-01  1.3821889701455D+00
   124  1.2300000000000D+00  1.1417597404813D-01  1.3718958970303D+00
   125  1.2400000000000D+00  9.7297118130202D-02  1.3599569888110D+00
   126  1.2500000000000D+00  8.1004576956605D-02  1.3464331716549D+00
   127  1.2600000000000D+00  6.5296889680147D-02  1.3313893246860D+00
   128  1.2700000000000D+00  5.0171360834944D-02  1.3148939702899D+00
   129  1.2800000000000D+00  3.5624161402673D-02  1.2970189507244D+00
   130  1.2900000000000D+00  2.1650433176316D-02  1.2778390923975D+00
   131  1.3000000000000D+00  8.2443958153740D-03  1.2574318592173D+00
   132  1.3100000000000D+00 -4.6005439991459D-03  1.2358769964119D+00
   133  1.3200000000000D+00 -1.6891681907777D-02  1.2132561662262D+00
   134  1.3300000000000D+00 -2.8636904298874D-02  1.1896525769077D+00
   135  1.3400000000000D+00 -3.9844576369827D-02  1.1651506063394D+00
   136  1.3500000000000D+00 -5.0523430401127D-02  1.1398354217234D+00
   137  1.3600000000000D+00 -6.0682454750767D-02  1.1137925966183D+00
   138  1.3700000000000D+00 -7.0330784070630D-02  1.0871077266123D+00
   139  1.3800000000000D+00 -7.9477591253629D-02  1.0598660449377D+00
   140  1.3900000000000D+00 -8.8131981506085D-02  1.0321520391337D+00
   141  1.4000000000000D+00 -9.6302889001356D-02  1.0040490699659D+00
   142  1.4100000000000D+00 -1.0399897647775D-01  9.7563899365723D-01
   143  1.4200000000000D+00 -1.1122853807841D-01  9.4700178834948D-01
   144  1.4300000000000D+00 -1.1799940581717D-01  9.1821518588837D-01
   145  1.4400000000000D+00 -1.2431885981827D-01  8.8935430957194D-01
   146  1.4500000000000D+00 -1.3019354263276D-01  8.6049131879839D-01
   147  1.4600000000000D+00 -1.3562937775942D-01  8.3169506121582D-01
   148  1.4700000000000D+00 -1.4063149247105D-01  8.0303073291537D-01
   149  1.4800000000000D+00 -1.4520414512201D-01  7.7455954736612D-01
   150  1.4900000000000D+00 -1.4935065682699D-01  7.4633841321135D-01
   151  1.5000000000000D+00 -1.5307334768239D-01  7.1841962161786D-01
   152  1.5100000000000D+00 -1.5637347732196D-01  6.9085054309647D-01
   153  1.5200000000000D+00 -1.5925118983964D-01  6.6367333420259D-01
   154  1.5300000000000D+00 -1.6170546289800D-01  6.3692465408944D-01
   155  1.5400000000000D+00 -1.6373406086047D-01  6.1063539091397D-01
   156  1.5500000000000D+00 -1.6533349181127D-01  5.8483039816716D-01
   157  1.5600000000000D+00 -1.6649896808653D-01  5.5952824021403D-01
   158  1.5700000000000D+00 -1.6722436973039D-01  5.3474094381766D-01
   159  1.5800000000000D+00 -1.6750221358929D-01  5.1047377832098D-01
   160  1.5900000000000D+00 -1.6732361777980D-01  4.8672498965221D-01
   161  1.6000000000000D+00 -1.6667830268034D-01  4.6348577960241D-01
   162  1.6100000000000D+00 -1.6555449849391D-01  4.4073964021591D-01
   163  1.6200000000000D+00 -1.6393894438529D-01  4.1846228543152D-01
   164  1.6300000000000D+00 -1.6181708903667D-01  3.9662309088218D-01
   165  1.6400000000000D+00 -1.5917326782859D-01  3.7518620473310D-01
   166  1.6500000000000D+00 -1.5599099763019D-01  3.5411223723755D-01
   167  1.6600000000000D+00 -1.5225318211345D-01  3.3335930749329D-01
   168  1.6700000000000D+00 -1.4794214345283D-01  3.1288274527758D-01
   169  1.6800000000000D+00 -1.4303972580012D-01  2.9263531450996D-01
   170  1.6900000000000D+00 -1.3752741106731D-01  2.7256756611524D-01
   171  1.7000000000000D+00 -1.3138641179332D-01  2.5262800558176D-01
   172  1.7100000000000D+00 -1.2459776973740D-01  2.3276332057026D-01
   173  1.7200000000000D+00 -1.1714244768683D-01  2.1291857350906D-01
   174  1.7300000000000D+00 -1.0900141728265D-01  1.9303738540063D-01
   175  1.7400000000000D+00 -1.0015574178103D-01  1.7306210599891D-01
   176  1.7500000000000D+00 -9.0586652961377D-02  1.5293396898509D-01
   177  1.7600000000000D+00 -8.0246781341057D-02  1.3255137446193D-01
   178  1.7700000000000D+00 -6.9129287014569D-02  1.1187025397271D-01
   179  1.7800000000000D+00 -5.7491036051048D-02  9.1229230148695D-02
   180  1.7900000000000D+00 -4.5338521646478D-02  7.0602732132701D-02
   181  1.8000000000000D+00 -3.1142214548946D-02  4.7718798911339D-02
   182  1.8100000000000D+00 -1.4331981279853D-02  2.1692243545291D-02
   183  1.8200000000000D+00 -1.0733713893360D-03  1.5280922170538D-03
   184  1.8300000000000D+00  2.8312255208607D-03 -4.3418805760991D-03
   185  1.8400000000000D+00  9.4418861868791D-04 -1.4374307851903D-03
   186  1.8500000000000D+00 -6.2099044475094D-04  9.5409423925477D-04
   187  1.8600000000000D+00 -4.2236948340115D-04  6.4780926472898D-04
   188  1.8700000000000D+00  6.2982090994865D-05 -9.8250746049684D-05
   189  1.8800000000000D+00  7.7075965675763D-05 -1.2013041374685D-04
   190  1.8900000000000D+00 -6.6117623654421D-08  1.9808762768122D-07
   191  1.9000000000000D+00 -1.6860872264101D-07  5.0514976232187D-07
   192  1.9100000000000D+00 -4.9711117900442D-09  1.4893392820269D-08
   193  1.9200000000000D+00  0.0000000000000D+00  0.0000000000000D+00
   194  1.9300000000000D+00  0.0000000000000D+00  0.0000000000000D+00
   195  1.9400000000000D+00  0.0000000000000D+00  0.0000000000000D+00
   196  1.9500000000000D+00  0.0000000000000D+00  0.0000000000000D+00
   197  1.9600000000000D+00  0.0000000000000D+00  0.0000000000000D+00
   198  1.9700000000000D+00  0.0000000000000D+00  0.0000000000000D+00
   199  1.9800000000000D+00  0.0000000000000D+00  0.0000000000000D+00
   200  1.9900000000000D+00  0.0000000000000D+00  0.0000000000000D+00
   201  2.0000000000000D+00  0.0000000000000D+00  0.0000000000000D+00
   202  2.0100000000000D+00  0.0000000000000D+00  0.0000000000000D+00
   203  2.0200000000000D+00  0.0000000000000D+00  0.0000000000000D+00
   204  2.0300000000000D+00  0.0000000000000D+00  0.0000000000000D+00
   205  2.0400000000000D+00  0.0000000000000D+00  0.0000000000000D+00
   206  2.0500000000000D+00  0.0000000000000D+00  0.0000000000000D+00
   207  2.0600000000000D+00  0.0000000000000D+00  0.0000000000000D+00
   208  2.0700000000000D+00  0.0000000000000D+00  0.0000000000000D+00
   209  2.0800000000000D+00  0.0000000000000D+00  0.0000000000000D+00
   210  2.0900000000000D+00  0.0000000000000D+00  0.0000000000000D+00
   211  2.1000000000000D+00  0.0000000000000D+00  0.0000000000000D+00
   212  2.1100000000000D+00  0.0000000000000D+00  0.0000000000000D+00
   213  2.1200000000000D+00  0.0000000000000D+00  0.0000000000000D+00
   214  2.1300000000000D+00  0.0000000000000D+00  0.0000000000000D+00
   215  2.1400000000000D+00  0.0000000000000D+00  0.0000000000000D+00
   216  2.1500000000000D+00  0.0000000000000D+00  0.0000000000000D+00
   217  2.1600000000000D+00  0.0000000000000D+00  0.0000000000000D+00
   218  2.1700000000000D+00  0.0000000000000D+00  0.0000000000000D+00
   219  2.1800000000000D+00  0.0000000000000D+00  0.0000000000000D+00
   220  2.1900000000000D+00  0.0000000000000D+00  0.0000000000000D+00
   221  2.2000000000000D+00  0.0000000000000D+00  0.0000000000000D+00
   222  2.2100000000000D+00  0.0000000000000D+00  0.0000000000000D+00
   223  2.2200000000000D+00  0.0000000000000D+00  0.0000000000000D+00
   224  2.2300000000000D+00  0.0000000000000D+00  0.0000000000000D+00
   225  2.2400000000000D+00  0.0000000000000D+00  0.0000000000000D+00
   226  2.2500000000000D+00  0.0000000000000D+00  0.0000000000000D+00
   227  2.2600000000000D+00  0.0000000000000D+00  0.0000000000000D+00
   228  2.2700000000000D+00  0.0000000000000D+00  0.0000000000000D+00
   229  2.2800000000000D+00  0.0000000000000D+00  0.0000000000000D+00
   230  2.2900000000000D+00  0.0000000000000D+00  0.0000000000000D+00
   231  2.3000000000000D+00  0.0000000000000D+00  0.0000000000000D+00
   232  2.3100000000000D+00  0.0000000000000D+00  0.0000000000000D+00
   233  2.3200000000000D+00  0.0000000000000D+00  0.0000000000000D+00
   234  2.3300000000000D+00  0.0000000000000D+00  0.0000000000000D+00
   235  2.3400000000000D+00  0.0000000000000D+00  0.0000000000000D+00
   236  2.3500000000000D+00  0.0000000000000D+00  0.0000000000000D+00
   237  2.3600000000000D+00  0.0000000000000D+00  0.0000000000000D+00
   238  2.3700000000000D+00  0.0000000000000D+00  0.0000000000000D+00
   239  2.3800000000000D+00  0.0000000000000D+00  0.0000000000000D+00
   240  2.3900000000000D+00  0.0000000000000D+00  0.0000000000000D+00
   241  2.4000000000000D+00  0.0000000000000D+00  0.0000000000000D+00
   242  2.4100000000000D+00  0.0000000000000D+00  0.0000000000000D+00
   243  2.4200000000000D+00  0.0000000000000D+00  0.0000000000000D+00
   244  2.4300000000000D+00  0.0000000000000D+00  0.0000000000000D+00
   245  2.4400000000000D+00  0.0000000000000D+00  0.0000000000000D+00
   246  2.4500000000000D+00  0.0000000000000D+00  0.0000000000000D+00
   247  2.4600000000000D+00  0.0000000000000D+00  0.0000000000000D+00
   248  2.4700000000000D+00  0.0000000000000D+00  0.0000000000000D+00
   249  2.4800000000000D+00  0.0000000000000D+00  0.0000000000000D+00
   250  2.4900000000000D+00  0.0000000000000D+00  0.0000000000000D+00
   251  2.5000000000000D+00  0.0000000000000D+00  0.0000000000000D+00
   252  2.5100000000000D+00  0.0000000000000D+00  0.0000000000000D+00
   253  2.5200000000000D+00  0.0000000000000D+00  0.0000000000000D+00
   254  2.5300000000000D+00  0.0000000000000D+00  0.0000000000000D+00
   255  2.5400000000000D+00  0.0000000000000D+00  0.0000000000000D+00
   256  2.5500000000000D+00  0.0000000000000D+00  0.0000000000000D+00
   257  2.5600000000000D+00  0.0000000000000D+00  0.0000000000000D+00
   258  2.5700000000000D+00  0.0000000000000D+00  0.0000000000000D+00
   259  2.5800000000000D+00  0.0000000000000D+00  0.0000000000000D+00
   260  2.5900000000000D+00  0.0000000000000D+00  0.0000000000000D+00
   261  2.6000000000000D+00  0.0000000000000D+00  0.0000000000000D+00
   262  2.6100000000000D+00  0.0000000000000D+00  0.0000000000000D+00
   263  2.6200000000000D+00  0.0000000000000D+00  0.0000000000000D+00
   264  2.6300000000000D+00  0.0000000000000D+00  0.0000000000000D+00
   265  2.6400000000000D+00  0.0000000000000D+00  0.0000000000000D+00
   266  2.6500000000000D+00  0.0000000000000D+00  0.0000000000000D+00
   267  2.6600000000000D+00  0.0000000000000D+00  0.0000000000000D+00
   268  2.6700000000000D+00  0.0000000000000D+00  0.0000000000000D+00
   269  2.6800000000000D+00  0.0000000000000D+00  0.0000000000000D+00
   270  2.6900000000000D+00  0.0000000000000D+00  0.0000000000000D+00
   271  2.7000000000000D+00  0.0000000000000D+00  0.0000000000000D+00
   272  2.7100000000000D+00  0.0000000000000D+00  0.0000000000000D+00
   273  2.7200000000000D+00  0.0000000000000D+00  0.0000000000000D+00
   274  2.7300000000000D+00  0.0000000000000D+00  0.0000000000000D+00
   275  2.7400000000000D+00  0.0000000000000D+00  0.0000000000000D+00
   276  2.7500000000000D+00  0.0000000000000D+00  0.0000000000000D+00
   277  2.7600000000000D+00  0.0000000000000D+00  0.0000000000000D+00
   278  2.7700000000000D+00  0.0000000000000D+00  0.0000000000000D+00
   279  2.7800000000000D+00  0.0000000000000D+00  0.0000000000000D+00
   280  2.7900000000000D+00  0.0000000000000D+00  0.0000000000000D+00
   281  2.8000000000000D+00  0.0000000000000D+00  0.0000000000000D+00
   282  2.8100000000000D+00  0.0000000000000D+00  0.0000000000000D+00
   283  2.8200000000000D+00  0.0000000000000D+00  0.0000000000000D+00
   284  2.8300000000000D+00  0.0000000000000D+00  0.0000000000000D+00
   285  2.8400000000000D+00  0.0000000000000D+00  0.0000000000000D+00
   286  2.8500000000000D+00  0.0000000000000D+00  0.0000000000000D+00
   287  2.8600000000000D+00  0.0000000000000D+00  0.0000000000000D+00
   288  2.8700000000000D+00  0.0000000000000D+00  0.0000000000000D+00
   289  2.8800000000000D+00  0.0000000000000D+00  0.0000000000000D+00
   290  2.8900000000000D+00  0.0000000000000D+00  0.0000000000000D+00
   291  2.9000000000000D+00  0.0000000000000D+00  0.0000000000000D+00
   292  2.9100000000000D+00  0.0000000000000D+00  0.0000000000000D+00
   293  2.9200000000000D+00  0.0000000000000D+00  0.0000000000000D+00
   294  2.9300000000000D+00  0.0000000000000D+00  0.0000000000000D+00
   295  2.9400000000000D+00  0.0000000000000D+00  0.0000000000000D+00
   296  2.9500000000000D+00  0.0000000000000D+00  0.0000000000000D+00
   297  2.9600000000000D+00  0.0000000000000D+00  0.0000000000000D+00
   298  2.9700000000000D+00  0.0000000000000D+00  0.0000000000000D+00
   299  2.9800000000000D+00  0.0000000000000D+00  0.0000000000000D+00
   300  2.9900000000000D+00  0.0000000000000D+00  0.0000000000000D+00
   301  3.0000000000000D+00  0.0000000000000D+00  0.0000000000000D+00
   302  3.0100000000000D+00  0.0000000000000D+00  0.0000000000000D+00
   303  3.0200000000000D+00  0.0000000000000D+00  0.0000000000000D+00
   304  3.0300000000000D+00  0.0000000000000D+00  0.0000000000000D+00
   305  3.0400000000000D+00  0.0000000000000D+00  0.0000000000000D+00
   306  3.0500000000000D+00  0.0000000000000D+00  0.0000000000000D+00
   307  3.0600000000000D+00  0.0000000000000D+00  0.0000000000000D+00
   308  3.0700000000000D+00  0.0000000000000D+00  0.0000000000000D+00
   309  3.0800000000000D+00  0.0000000000000D+00  0.0000000000000D+00
   310  3.0900000000000D+00  0.0000000000000D+00  0.0000000000000D+00
   311  3.1000000000000D+00  0.0000000000000D+00  0.0000000000000D+00
   312  3.1100000000000D+00  0.0000000000000D+00  0.0000000000000D+00
   313  3.1200000000000D+00  0.0000000000000D+00  0.0000000000000D+00
   314  3.1300000000000D+00  0.0000000000000D+00  0.0000000000000D+00
   315  3.1400000000000D+00  0.0000000000000D+00  0.0000000000000D+00
   316  3.1500000000000D+00  0.0000000000000D+00  0.0000000000000D+00
   317  3.1600000000000D+00  0.0000000000000D+00  0.0000000000000D+00
   318  3.1700000000000D+00  0.0000000000000D+00  0.0000000000000D+00
   319  3.1800000000000D+00  0.0000000000000D+00  0.0000000000000D+00
   320  3.1900000000000D+00  0.0000000000000D+00  0.0000000000000D+00
   321  3.2000000000000D+00  0.0000000000000D+00  0.0000000000000D+00
   322  3.2100000000000D+00  0.0000000000000D+00  0.0000000000000D+00
   323  3.2200000000000D+00  0.0000000000000D+00  0.0000000000000D+00
   324  3.2300000000000D+00  0.0000000000000D+00  0.0000000000000D+00
   325  3.2400000000000D+00  0.0000000000000D+00  0.0000000000000D+00
   326  3.2500000000000D+00  0.0000000000000D+00  0.0000000000000D+00
   327  3.2600000000000D+00  0.0000000000000D+00  0.0000000000000D+00
   328  3.2700000000000D+00  0.0000000000000D+00  0.0000000000000D+00
   329  3.2800000000000D+00  0.0000000000000D+00  0.0000000000000D+00
   330  3.2900000000000D+00  0.0000000000000D+00  0.0000000000000D+00
   331  3.3000000000000D+00  0.0000000000000D+00  0.0000000000000D+00
   332  3.3100000000000D+00  0.0000000000000D+00  0.0000000000000D+00
   333  3.3200000000000D+00  0.0000000000000D+00  0.0000000000000D+00
   334  3.3300000000000D+00  0.0000000000000D+00  0.0000000000000D+00
   335  3.3400000000000D+00  0.0000000000000D+00  0.0000000000000D+00
   336  3.3500000000000D+00  0.0000000000000D+00  0.0000000000000D+00
   337  3.3600000000000D+00  0.0000000000000D+00  0.0000000000000D+00
   338  3.3700000000000D+00  0.0000000000000D+00  0.0000000000000D+00
   339  3.3800000000000D+00  0.0000000000000D+00  0.0000000000000D+00
   340  3.3900000000000D+00  0.0000000000000D+00  0.0000000000000D+00
   341  3.4000000000000D+00  0.0000000000000D+00  0.0000000000000D+00
   342  3.4100000000000D+00  0.0000000000000D+00  0.0000000000000D+00
   343  3.4200000000000D+00  0.0000000000000D+00  0.0000000000000D+00
   344  3.4300000000000D+00  0.0000000000000D+00  0.0000000000000D+00
   345  3.4400000000000D+00  0.0000000000000D+00  0.0000000000000D+00
   346  3.4500000000000D+00  0.0000000000000D+00  0.0000000000000D+00
   347  3.4600000000000D+00  0.0000000000000D+00  0.0000000000000D+00
   348  3.4700000000000D+00  0.0000000000000D+00  0.0000000000000D+00
   349  3.4800000000000D+00  0.0000000000000D+00  0.0000000000000D+00
   350  3.4900000000000D+00  0.0000000000000D+00  0.0000000000000D+00
   351  3.5000000000000D+00  0.0000000000000D+00  0.0000000000000D+00
   352  3.5100000000000D+00  0.0000000000000D+00  0.0000000000000D+00
   353  3.5200000000000D+00  0.0000000000000D+00  0.0000000000000D+00
   354  3.5300000000000D+00  0.0000000000000D+00  0.0000000000000D+00
   355  3.5400000000000D+00  0.0000000000000D+00  0.0000000000000D+00
   356  3.5500000000000D+00  0.0000000000000D+00  0.0000000000000D+00
   357  3.5600000000000D+00  0.0000000000000D+00  0.0000000000000D+00
   358  3.5700000000000D+00  0.0000000000000D+00  0.0000000000000D+00
   359  3.5800000000000D+00  0.0000000000000D+00  0.0000000000000D+00
   360  3.5900000000000D+00  0.0000000000000D+00  0.0000000000000D+00
   361  3.6000000000000D+00  0.0000000000000D+00  0.0000000000000D+00
   362  3.6100000000000D+00  0.0000000000000D+00  0.0000000000000D+00
   363  3.6200000000000D+00  0.0000000000000D+00  0.0000000000000D+00
   364  3.6300000000000D+00  0.0000000000000D+00  0.0000000000000D+00
   365  3.6400000000000D+00  0.0000000000000D+00  0.0000000000000D+00
   366  3.6500000000000D+00  0.0000000000000D+00  0.0000000000000D+00
   367  3.6600000000000D+00  0.0000000000000D+00  0.0000000000000D+00
   368  3.6700000000000D+00  0.0000000000000D+00  0.0000000000000D+00
   369  3.6800000000000D+00  0.0000000000000D+00  0.0000000000000D+00
   370  3.6900000000000D+00  0.0000000000000D+00  0.0000000000000D+00
   371  3.7000000000000D+00  0.0000000000000D+00  0.0000000000000D+00
   372  3.7100000000000D+00  0.0000000000000D+00  0.0000000000000D+00
   373  3.7200000000000D+00  0.0000000000000D+00  0.0000000000000D+00
   374  3.7300000000000D+00  0.0000000000000D+00  0.0000000000000D+00
   375  3.7400000000000D+00  0.0000000000000D+00  0.0000000000000D+00
   376  3.7500000000000D+00  0.0000000000000D+00  0.0000000000000D+00
   377  3.7600000000000D+00  0.0000000000000D+00  0.0000000000000D+00
   378  3.7700000000000D+00  0.0000000000000D+00  0.0000000000000D+00
   379  3.7800000000000D+00  0.0000000000000D+00  0.0000000000000D+00
   380  3.7900000000000D+00  0.0000000000000D+00  0.0000000000000D+00
   381  3.8000000000000D+00  0.0000000000000D+00  0.0000000000000D+00
   382  3.8100000000000D+00  0.0000000000000D+00  0.0000000000000D+00
   383  3.8200000000000D+00  0.0000000000000D+00  0.0000000000000D+00
   384  3.8300000000000D+00  0.0000000000000D+00  0.0000000000000D+00
   385  3.8400000000000D+00  0.0000000000000D+00  0.0000000000000D+00
   386  3.8500000000000D+00  0.0000000000000D+00  0.0000000000000D+00
   387  3.8600000000000D+00  0.0000000000000D+00  0.0000000000000D+00
   388  3.8700000000000D+00  0.0000000000000D+00  0.0000000000000D+00
   389  3.8800000000000D+00  0.0000000000000D+00  0.0000000000000D+00
   390  3.8900000000000D+00  0.0000000000000D+00  0.0000000000000D+00
   391  3.9000000000000D+00  0.0000000000000D+00  0.0000000000000D+00
   392  3.9100000000000D+00  0.0000000000000D+00  0.0000000000000D+00
   393  3.9200000000000D+00  0.0000000000000D+00  0.0000000000000D+00
   394  3.9300000000000D+00  0.0000000000000D+00  0.0000000000000D+00
   395  3.9400000000000D+00  0.0000000000000D+00  0.0000000000000D+00
   396  3.9500000000000D+00  0.0000000000000D+00  0.0000000000000D+00
   397  3.9600000000000D+00  0.0000000000000D+00  0.0000000000000D+00
   398  3.9700000000000D+00  0.0000000000000D+00  0.0000000000000D+00
   399  3.9800000000000D+00  0.0000000000000D+00  0.0000000000000D+00
   400  3.9900000000000D+00  0.0000000000000D+00  0.0000000000000D+00
   401  4.0000000000000D+00  0.0000000000000D+00  0.0000000000000D+00
   402  4.0100000000000D+00  0.0000000000000D+00  0.0000000000000D+00
   403  4.0200000000000D+00  0.0000000000000D+00  0.0000000000000D+00
   404  4.0300000000000D+00  0.0000000000000D+00  0.0000000000000D+00
   405  4.0400000000000D+00  0.0000000000000D+00  0.0000000000000D+00
   406  4.0500000000000D+00  0.0000000000000D+00  0.0000000000000D+00
   407  4.0600000000000D+00  0.0000000000000D+00  0.0000000000000D+00
   408  4.0700000000000D+00  0.0000000000000D+00  0.0000000000000D+00
   409  4.0800000000000D+00  0.0000000000000D+00  0.0000000000000D+00
   410  4.0900000000000D+00  0.0000000000000D+00  0.0000000000000D+00
   411  4.1000000000000D+00  0.0000000000000D+00  0.0000000000000D+00
   412  4.1100000000000D+00  0.0000000000000D+00  0.0000000000000D+00
   413  4.1200000000000D+00  0.0000000000000D+00  0.0000000000000D+00
   414  4.1300000000000D+00  0.0000000000000D+00  0.0000000000000D+00
   415  4.1400000000000D+00  0.0000000000000D+00  0.0000000000000D+00
   416  4.1500000000000D+00  0.0000000000000D+00  0.0000000000000D+00
   417  4.1600000000000D+00  0.0000000000000D+00  0.0000000000000D+00
   418  4.1700000000000D+00  0.0000000000000D+00  0.0000000000000D+00
   419  4.1800000000000D+00  0.0000000000000D+00  0.0000000000000D+00
   420  4.1900000000000D+00  0.0000000000000D+00  0.0000000000000D+00
   421  4.2000000000000D+00  0.0000000000000D+00  0.0000000000000D+00
   422  4.2100000000000D+00  0.0000000000000D+00  0.0000000000000D+00