Ge    ONCVPSP-3.3.0  r_core=   1.21401   1.30409   1.50478
     32.0000     22.0000      220117    zatom,zion,pspd
     8      11   2     4   600     0    pspcod,pspxc,lmax,lloc,mmax,r2well
  5.99000000  0.00000000  0.00000000    rchrg fchrg qchrg
     2     2     2     0     0    nproj
     1     1           extension_switch
   0                         4.4322293180119D+00 -1.7888172288063D+00
     1  0.0000000000000D+00  1.6747466746736D-09  2.4407653675951D-10
     2  1.0000000000000D-02  1.0286864998563D-01  3.3067813874704D-02
     3  2.0000000000000D-02  2.0537084613719D-01  6.6159429559679D-02
     4  3.0000000000000D-02  3.0714039172928D-01  9.9298132211470D-02
     5  4.0000000000000D-02  4.0781162576439D-01  1.3250617929129D-01
     6  5.0000000000000D-02  5.0701974417835D-01  1.6580430068481D-01
     7  6.0000000000000D-02  6.0440118384412D-01  1.9921121540777D-01
     8  7.0000000000000D-02  6.9959408830718D-01  2.3274317013617D-01
     9  8.0000000000000D-02  7.9223887251124D-01  2.6641350455570D-01
    10  9.0000000000000D-02  8.8197890172767D-01  3.0023224822557D-01
    11  1.0000000000000D-01  9.6846129751746D-01  3.3420575329975D-01
    12  1.1000000000000D-01  1.0513378808675D+00  3.6833636704871D-01
    13  1.2000000000000D-01  1.1302662596942D+00  4.0262214768142D-01
    14  1.3000000000000D-01  1.2049110647427D+00  4.3705662648553D-01
    15  1.4000000000000D-01  1.2749453345795D+00  4.7162861878923D-01
    16  1.5000000000000D-01  1.3400520469299D+00  5.0632208570742D-01
    17  1.6000000000000D-01  1.3999257901070D+00  5.4111604807291D-01
    18  1.7000000000000D-01  1.4542745647691D+00  5.7598455337832D-01
    19  1.8000000000000D-01  1.5028217027873D+00  6.1089669597165D-01
    20  1.9000000000000D-01  1.5453078866554D+00  6.4581669016551D-01
    21  2.0000000000000D-01  1.5814932496972D+00  6.8070399534337D-01
    22  2.1000000000000D-01  1.6111595343598D+00  7.1551349158288D-01
    23  2.2000000000000D-01  1.6341122831941D+00  7.5019570377218D-01
    24  2.3000000000000D-01  1.6501830347530D+00  7.8469707167739D-01
    25  2.4000000000000D-01  1.6592314946308D+00  8.1896026293351D-01
    26  2.5000000000000D-01  1.6611476502670D+00  8.5292452548237D-01
    27  2.6000000000000D-01  1.6558537969765D+00  8.8652607557581D-01
    28  2.7000000000000D-01  1.6433064419743D+00  9.1969851710392D-01
    29  2.8000000000000D-01  1.6234980529612D+00  9.5237328770121D-01
    30  2.9000000000000D-01  1.5964586181434D+00  9.8448012683179D-01
    31  3.0000000000000D-01  1.5622569853794D+00  1.0159475608603D+00
    32  3.1000000000000D-01  1.5210019494881D+00  1.0467033999807D+00
    33  3.2000000000000D-01  1.4728430586031D+00  1.0766752418023D+00
    34  3.3000000000000D-01  1.4179711128086D+00  1.1057909763792D+00
    35  3.4000000000000D-01  1.3566183311221D+00  1.1339792875203D+00
    36  3.5000000000000D-01  1.2890581661653D+00  1.1611701453286D+00
    37  3.6000000000000D-01  1.2156047495606D+00  1.1872952850829D+00
    38  3.7000000000000D-01  1.1366119551557D+00  1.2122886678083D+00
    39  3.8000000000000D-01  1.0524720715702D+00  1.2360869181530D+00
    40  3.9000000000000D-01  9.6361408022476D-01  1.2586297355240D+00
    41  4.0000000000000D-01  8.7050153988523D-01  1.2798602748042D+00
    42  4.1000000000000D-01  7.7363008378544D-01  1.2997254933892D+00
    43  4.2000000000000D-01  6.7352454049872D-01  1.3181764617301D+00
    44  4.3000000000000D-01  5.7073569485489D-01  1.3351686350466D+00
    45  4.4000000000000D-01  4.6583671026637D-01  1.3506620843738D+00
    46  4.5000000000000D-01  3.5941923876762D-01  1.3646216856240D+00
    47  4.6000000000000D-01  2.5208924981167D-01  1.3770172658675D+00
    48  4.7000000000000D-01  1.4446261333866D-01  1.3878237065658D+00
    49  4.8000000000000D-01  3.7160476763312D-02  1.3970210040122D+00
    50  4.9000000000000D-01 -6.9195520741702D-02  1.4045942877492D+00
    51  5.0000000000000D-01 -1.7398815002302D-01  1.4105337982210D+00
    52  5.1000000000000D-01 -2.7660956039397D-01  1.4148348253944D+00
    53  5.2000000000000D-01 -3.7646626318280D-01  1.4174976105153D+00
    54  5.3000000000000D-01 -4.7298407724448D-01  1.4185272135754D+00
    55  5.4000000000000D-01 -5.6561298237932D-01  1.4179333494220D+00
    56  5.5000000000000D-01 -6.5383182635310D-01  1.4157301957615D+00
    57  5.6000000000000D-01 -7.3715283166118D-01  1.4119361765747D+00
    58  5.7000000000000D-01 -8.1512584932198D-01  1.4065737246741D+00
    59  5.8000000000000D-01 -8.8734230883837D-01  1.3996690272921D+00
    60  5.9000000000000D-01 -9.5343881599736D-01  1.3912517586921D+00
    61  6.0000000000000D-01 -1.0131003534002D+00  1.3813548038355D+00
    62  6.1000000000000D-01 -1.0660630424526D+00  1.3700139771250D+00
    63  6.2000000000000D-01 -1.1121164300246D+00  1.3572677401724D+00
    64  6.3000000000000D-01 -1.1511052679778D+00  1.3431569224098D+00
    65  6.4000000000000D-01 -1.1829307592932D+00  1.3277244481852D+00
    66  6.5000000000000D-01 -1.2075512504810D+00  1.3110150737475D+00
    67  6.6000000000000D-01 -1.2249823562486D+00  1.2930751372517D+00
    68  6.7000000000000D-01 -1.2352965090380D+00  1.2739523245929D+00
    69  6.8000000000000D-01 -1.2386219328361D+00  1.2536954535189D+00
    70  6.9000000000000D-01 -1.2351410475814D+00  1.2323542780841D+00
    71  7.0000000000000D-01 -1.2250883174569D+00  1.2099793150927D+00
    72  7.1000000000000D-01 -1.2087475632465D+00  1.1866216937428D+00
    73  7.2000000000000D-01 -1.1864487656602D+00  1.1623330292398D+00
    74  7.3000000000000D-01 -1.1585643930227D+00  1.1371653206931D+00
    75  7.4000000000000D-01 -1.1255052928455D+00  1.1111708731627D+00
    76  7.5000000000000D-01 -1.0877161925477D+00  1.0844022432757D+00
    77  7.6000000000000D-01 -1.0456708597751D+00  1.0569122074082D+00
    78  7.7000000000000D-01 -9.9986697739614D-01  1.0287537510216D+00
    79  7.8000000000000D-01 -9.5082079221869D-01  9.9998007736408D-01
    80  7.9000000000000D-01 -8.9906159972004D-01  9.7064463340123D-01
    81  8.0000000000000D-01 -8.4512612955720D-01  9.4080115053775D-01
    82  8.1000000000000D-01 -7.8955289829005D-01  9.1050369742503D-01
    83  8.2000000000000D-01 -7.3287659656600D-01  8.7980674193748D-01
    84  8.3000000000000D-01 -6.7562257796660D-01  8.4876521923420D-01
    85  8.4000000000000D-01 -6.1830151578714D-01  8.1743460271165D-01
    86  8.5000000000000D-01 -5.6140429222054D-01  7.8587097459695D-01
    87  8.6000000000000D-01 -5.0539718175488D-01  7.5413109293008D-01
    88  8.7000000000000D-01 -4.5071738709918D-01  7.2227245173900D-01
    89  8.8000000000000D-01 -3.9776898166221D-01  6.9035333132074D-01
    90  8.9000000000000D-01 -3.4691930757633D-01  6.5843283570523D-01
    91  9.0000000000000D-01 -2.9849587252885D-01  6.2657091459181D-01
    92  9.1000000000000D-01 -2.5278378234265D-01  5.9482836730862D-01
    93  9.2000000000000D-01 -2.1002373938392D-01  5.6326682664867D-01
    94  9.3000000000000D-01 -1.7041062953979D-01  5.3194872077871D-01
    95  9.4000000000000D-01 -1.3409271286986D-01  5.0093721179102D-01
    96  9.5000000000000D-01 -1.0117142511446D-01  4.7029610986955D-01
    97  9.6000000000000D-01 -7.1701789189762D-02  4.4008976246410D-01
    98  9.7000000000000D-01 -4.5693427711416D-02  4.1038291830118D-01
    99  9.8000000000000D-01 -2.3112159574095D-02  3.8124056650278D-01
   100  9.9000000000000D-01 -3.8821558021233D-03  3.5272775152497D-01
   101  1.0000000000000D+00  1.2111377741516D-02  3.2490936506818D-01
   102  1.0100000000000D+00  2.5019030131860D-02  2.9784991651854D-01
   103  1.0200000000000D+00  3.5023573838261D-02  2.7161328389004D-01
   104  1.0300000000000D+00  4.2335964026295D-02  2.4626244760400D-01
   105  1.0400000000000D+00  4.7191006208498D-02  2.2185920977625D-01
   106  1.0500000000000D+00  4.9842754389608D-02  1.9846390198071D-01
   107  1.0600000000000D+00  5.0559705684599D-02  1.7613508471404D-01
   108  1.0700000000000D+00  4.9619860121926D-02  1.5492924197504D-01
   109  1.0800000000000D+00  4.7305716620760D-02  1.3490047454340D-01
   110  1.0900000000000D+00  4.3899276949842D-02  1.1610019562258D-01
   111  1.1000000000000D+00  3.9677129630913D-02  9.8576832554656D-02
   112  1.1100000000000D+00  3.4905684606712D-02  8.2375538281981D-02
   113  1.1200000000000D+00  2.9836628187904D-02  6.7537916180392D-02
   114  1.1300000000000D+00  2.4702664314146D-02  5.4101761719503D-02
   115  1.1400000000000D+00  1.9713604923349D-02  4.2100824235818D-02
   116  1.1500000000000D+00  1.5052866737517D-02  3.1564591807917D-02
   117  1.1600000000000D+00  1.0874428388802D-02  2.2518102039057D-02
   118  1.1700000000000D+00  7.3002933111134D-03  1.4981781075273D-02
   119  1.1800000000000D+00  4.4202374084146D-03  8.9747647946180D-03
   120  1.1900000000000D+00  2.2714852340020D-03  4.4799541749429D-03
   121  1.2000000000000D+00  9.0942748846869D-04  1.5708691124985D-03
   122  1.2100000000000D+00  3.2157741098613D-04  2.5647295550064D-04
   123  1.2200000000000D+00  9.5157651535407D-05 -4.5870480289740D-05
   124  1.2300000000000D+00 -5.4262491135947D-06  6.8166108998081D-06
   125  1.2400000000000D+00 -5.9314244924857D-06  1.1247446955793D-05
   126  1.2500000000000D+00  3.0845861631889D-06 -3.1803067225745D-06
   127  1.2600000000000D+00 -2.5013244095968D-07 -6.4318282597584D-08
   128  1.2700000000000D+00 -3.7097811139428D-07 -9.5392164705346D-08
   129  1.2800000000000D+00  0.0000000000000D+00  0.0000000000000D+00
   130  1.2900000000000D+00  0.0000000000000D+00  0.0000000000000D+00
   131  1.3000000000000D+00  0.0000000000000D+00  0.0000000000000D+00
   132  1.3100000000000D+00  0.0000000000000D+00  0.0000000000000D+00
   133  1.3200000000000D+00  0.0000000000000D+00  0.0000000000000D+00
   134  1.3300000000000D+00  0.0000000000000D+00  0.0000000000000D+00
   135  1.3400000000000D+00  0.0000000000000D+00  0.0000000000000D+00
   136  1.3500000000000D+00  0.0000000000000D+00  0.0000000000000D+00
   137  1.3600000000000D+00  0.0000000000000D+00  0.0000000000000D+00
   138  1.3700000000000D+00  0.0000000000000D+00  0.0000000000000D+00
   139  1.3800000000000D+00  0.0000000000000D+00  0.0000000000000D+00
   140  1.3900000000000D+00  0.0000000000000D+00  0.0000000000000D+00
   141  1.4000000000000D+00  0.0000000000000D+00  0.0000000000000D+00
   142  1.4100000000000D+00  0.0000000000000D+00  0.0000000000000D+00
   143  1.4200000000000D+00  0.0000000000000D+00  0.0000000000000D+00
   144  1.4300000000000D+00  0.0000000000000D+00  0.0000000000000D+00
   145  1.4400000000000D+00  0.0000000000000D+00  0.0000000000000D+00
   146  1.4500000000000D+00  0.0000000000000D+00  0.0000000000000D+00
   147  1.4600000000000D+00  0.0000000000000D+00  0.0000000000000D+00
   148  1.4700000000000D+00  0.0000000000000D+00  0.0000000000000D+00
   149  1.4800000000000D+00  0.0000000000000D+00  0.0000000000000D+00
   150  1.4900000000000D+00  0.0000000000000D+00  0.0000000000000D+00
   151  1.5000000000000D+00  0.0000000000000D+00  0.0000000000000D+00
   152  1.5100000000000D+00  0.0000000000000D+00  0.0000000000000D+00
   153  1.5200000000000D+00  0.0000000000000D+00  0.0000000000000D+00
   154  1.5300000000000D+00  0.0000000000000D+00  0.0000000000000D+00
   155  1.5400000000000D+00  0.0000000000000D+00  0.0000000000000D+00
   156  1.5500000000000D+00  0.0000000000000D+00  0.0000000000000D+00
   157  1.5600000000000D+00  0.0000000000000D+00  0.0000000000000D+00
   158  1.5700000000000D+00  0.0000000000000D+00  0.0000000000000D+00
   159  1.5800000000000D+00  0.0000000000000D+00  0.0000000000000D+00
   160  1.5900000000000D+00  0.0000000000000D+00  0.0000000000000D+00
   161  1.6000000000000D+00  0.0000000000000D+00  0.0000000000000D+00
   162  1.6100000000000D+00  0.0000000000000D+00  0.0000000000000D+00
   163  1.6200000000000D+00  0.0000000000000D+00  0.0000000000000D+00
   164  1.6300000000000D+00  0.0000000000000D+00  0.0000000000000D+00
   165  1.6400000000000D+00  0.0000000000000D+00  0.0000000000000D+00
   166  1.6500000000000D+00  0.0000000000000D+00  0.0000000000000D+00
   167  1.6600000000000D+00  0.0000000000000D+00  0.0000000000000D+00
   168  1.6700000000000D+00  0.0000000000000D+00  0.0000000000000D+00
   169  1.6800000000000D+00  0.0000000000000D+00  0.0000000000000D+00
   170  1.6900000000000D+00  0.0000000000000D+00  0.0000000000000D+00
   171  1.7000000000000D+00  0.0000000000000D+00  0.0000000000000D+00
   172  1.7100000000000D+00  0.0000000000000D+00  0.0000000000000D+00
   173  1.7200000000000D+00  0.0000000000000D+00  0.0000000000000D+00
   174  1.7300000000000D+00  0.0000000000000D+00  0.0000000000000D+00
   175  1.7400000000000D+00  0.0000000000000D+00  0.0000000000000D+00
   176  1.7500000000000D+00  0.0000000000000D+00  0.0000000000000D+00
   177  1.7600000000000D+00  0.0000000000000D+00  0.0000000000000D+00
   178  1.7700000000000D+00  0.0000000000000D+00  0.0000000000000D+00
   179  1.7800000000000D+00  0.0000000000000D+00  0.0000000000000D+00
   180  1.7900000000000D+00  0.0000000000000D+00  0.0000000000000D+00
   181  1.8000000000000D+00  0.0000000000000D+00  0.0000000000000D+00
   182  1.8100000000000D+00  0.0000000000000D+00  0.0000000000000D+00
   183  1.8200000000000D+00  0.0000000000000D+00  0.0000000000000D+00
   184  1.8300000000000D+00  0.0000000000000D+00  0.0000000000000D+00
   185  1.8400000000000D+00  0.0000000000000D+00  0.0000000000000D+00
   186  1.8500000000000D+00  0.0000000000000D+00  0.0000000000000D+00
   187  1.8600000000000D+00  0.0000000000000D+00  0.0000000000000D+00
   188  1.8700000000000D+00  0.0000000000000D+00  0.0000000000000D+00
   189  1.8800000000000D+00  0.0000000000000D+00  0.0000000000000D+00
   190  1.8900000000000D+00  0.0000000000000D+00  0.0000000000000D+00
   191  1.9000000000000D+00  0.0000000000000D+00  0.0000000000000D+00
   192  1.9100000000000D+00  0.0000000000000D+00  0.0000000000000D+00
   193  1.9200000000000D+00  0.0000000000000D+00  0.0000000000000D+00
   194  1.9300000000000D+00  0.0000000000000D+00  0.0000000000000D+00
   195  1.9400000000000D+00  0.0000000000000D+00  0.0000000000000D+00
   196  1.9500000000000D+00  0.0000000000000D+00  0.0000000000000D+00
   197  1.9600000000000D+00  0.0000000000000D+00  0.0000000000000D+00
   198  1.9700000000000D+00  0.0000000000000D+00  0.0000000000000D+00
   199  1.9800000000000D+00  0.0000000000000D+00  0.0000000000000D+00
   200  1.9900000000000D+00  0.0000000000000D+00  0.0000000000000D+00
   201  2.0000000000000D+00  0.0000000000000D+00  0.0000000000000D+00
   202  2.0100000000000D+00  0.0000000000000D+00  0.0000000000000D+00
   203  2.0200000000000D+00  0.0000000000000D+00  0.0000000000000D+00
   204  2.0300000000000D+00  0.0000000000000D+00  0.0000000000000D+00
   205  2.0400000000000D+00  0.0000000000000D+00  0.0000000000000D+00
   206  2.0500000000000D+00  0.0000000000000D+00  0.0000000000000D+00
   207  2.0600000000000D+00  0.0000000000000D+00  0.0000000000000D+00
   208  2.0700000000000D+00  0.0000000000000D+00  0.0000000000000D+00
   209  2.0800000000000D+00  0.0000000000000D+00  0.0000000000000D+00
   210  2.0900000000000D+00  0.0000000000000D+00  0.0000000000000D+00
   211  2.1000000000000D+00  0.0000000000000D+00  0.0000000000000D+00
   212  2.1100000000000D+00  0.0000000000000D+00  0.0000000000000D+00
   213  2.1200000000000D+00  0.0000000000000D+00  0.0000000000000D+00
   214  2.1300000000000D+00  0.0000000000000D+00  0.0000000000000D+00
   215  2.1400000000000D+00  0.0000000000000D+00  0.0000000000000D+00
   216  2.1500000000000D+00  0.0000000000000D+00  0.0000000000000D+00
   217  2.1600000000000D+00  0.0000000000000D+00  0.0000000000000D+00
   218  2.1700000000000D+00  0.0000000000000D+00  0.0000000000000D+00
   219  2.1800000000000D+00  0.0000000000000D+00  0.0000000000000D+00
   220  2.1900000000000D+00  0.0000000000000D+00  0.0000000000000D+00
   221  2.2000000000000D+00  0.0000000000000D+00  0.0000000000000D+00
   222  2.2100000000000D+00  0.0000000000000D+00  0.0000000000000D+00
   223  2.2200000000000D+00  0.0000000000000D+00  0.0000000000000D+00
   224  2.2300000000000D+00  0.0000000000000D+00  0.0000000000000D+00
   225  2.2400000000000D+00  0.0000000000000D+00  0.0000000000000D+00
   226  2.2500000000000D+00  0.0000000000000D+00  0.0000000000000D+00
   227  2.2600000000000D+00  0.0000000000000D+00  0.0000000000000D+00
   228  2.2700000000000D+00  0.0000000000000D+00  0.0000000000000D+00
   229  2.2800000000000D+00  0.0000000000000D+00  0.0000000000000D+00
   230  2.2900000000000D+00  0.0000000000000D+00  0.0000000000000D+00
   231  2.3000000000000D+00  0.0000000000000D+00  0.0000000000000D+00
   232  2.3100000000000D+00  0.0000000000000D+00  0.0000000000000D+00
   233  2.3200000000000D+00  0.0000000000000D+00  0.0000000000000D+00
   234  2.3300000000000D+00  0.0000000000000D+00  0.0000000000000D+00
   235  2.3400000000000D+00  0.0000000000000D+00  0.0000000000000D+00
   236  2.3500000000000D+00  0.0000000000000D+00  0.0000000000000D+00
   237  2.3600000000000D+00  0.0000000000000D+00  0.0000000000000D+00
   238  2.3700000000000D+00  0.0000000000000D+00  0.0000000000000D+00
   239  2.3800000000000D+00  0.0000000000000D+00  0.0000000000000D+00
   240  2.3900000000000D+00  0.0000000000000D+00  0.0000000000000D+00
   241  2.4000000000000D+00  0.0000000000000D+00  0.0000000000000D+00
   242  2.4100000000000D+00  0.0000000000000D+00  0.0000000000000D+00
   243  2.4200000000000D+00  0.0000000000000D+00  0.0000000000000D+00
   244  2.4300000000000D+00  0.0000000000000D+00  0.0000000000000D+00
   245  2.4400000000000D+00  0.0000000000000D+00  0.0000000000000D+00
   246  2.4500000000000D+00  0.0000000000000D+00  0.0000000000000D+00
   247  2.4600000000000D+00  0.0000000000000D+00  0.0000000000000D+00
   248  2.4700000000000D+00  0.0000000000000D+00  0.0000000000000D+00
   249  2.4800000000000D+00  0.0000000000000D+00  0.0000000000000D+00
   250  2.4900000000000D+00  0.0000000000000D+00  0.0000000000000D+00
   251  2.5000000000000D+00  0.0000000000000D+00  0.0000000000000D+00
   252  2.5100000000000D+00  0.0000000000000D+00  0.0000000000000D+00
   253  2.5200000000000D+00  0.0000000000000D+00  0.0000000000000D+00
   254  2.5300000000000D+00  0.0000000000000D+00  0.0000000000000D+00
   255  2.5400000000000D+00  0.0000000000000D+00  0.0000000000000D+00
   256  2.5500000000000D+00  0.0000000000000D+00  0.0000000000000D+00
   257  2.5600000000000D+00  0.0000000000000D+00  0.0000000000000D+00
   258  2.5700000000000D+00  0.0000000000000D+00  0.0000000000000D+00
   259  2.5800000000000D+00  0.0000000000000D+00  0.0000000000000D+00
   260  2.5900000000000D+00  0.0000000000000D+00  0.0000000000000D+00
   261  2.6000000000000D+00  0.0000000000000D+00  0.0000000000000D+00
   262  2.6100000000000D+00  0.0000000000000D+00  0.0000000000000D+00
   263  2.6200000000000D+00  0.0000000000000D+00  0.0000000000000D+00
   264  2.6300000000000D+00  0.0000000000000D+00  0.0000000000000D+00
   265  2.6400000000000D+00  0.0000000000000D+00  0.0000000000000D+00
   266  2.6500000000000D+00  0.0000000000000D+00  0.0000000000000D+00
   267  2.6600000000000D+00  0.0000000000000D+00  0.0000000000000D+00
   268  2.6700000000000D+00  0.0000000000000D+00  0.0000000000000D+00
   269  2.6800000000000D+00  0.0000000000000D+00  0.0000000000000D+00
   270  2.6900000000000D+00  0.0000000000000D+00  0.0000000000000D+00
   271  2.7000000000000D+00  0.0000000000000D+00  0.0000000000000D+00
   272  2.7100000000000D+00  0.0000000000000D+00  0.0000000000000D+00
   273  2.7200000000000D+00  0.0000000000000D+00  0.0000000000000D+00
   274  2.7300000000000D+00  0.0000000000000D+00  0.0000000000000D+00
   275  2.7400000000000D+00  0.0000000000000D+00  0.0000000000000D+00
   276  2.7500000000000D+00  0.0000000000000D+00  0.0000000000000D+00
   277  2.7600000000000D+00  0.0000000000000D+00  0.0000000000000D+00
   278  2.7700000000000D+00  0.0000000000000D+00  0.0000000000000D+00
   279  2.7800000000000D+00  0.0000000000000D+00  0.0000000000000D+00
   280  2.7900000000000D+00  0.0000000000000D+00  0.0000000000000D+00
   281  2.8000000000000D+00  0.0000000000000D+00  0.0000000000000D+00
   282  2.8100000000000D+00  0.0000000000000D+00  0.0000000000000D+00
   283  2.8200000000000D+00  0.0000000000000D+00  0.0000000000000D+00
   284  2.8300000000000D+00  0.0000000000000D+00  0.0000000000000D+00
   285  2.8400000000000D+00  0.0000000000000D+00  0.0000000000000D+00
   286  2.8500000000000D+00  0.0000000000000D+00  0.0000000000000D+00
   287  2.8600000000000D+00  0.0000000000000D+00  0.0000000000000D+00
   288  2.8700000000000D+00  0.0000000000000D+00  0.0000000000000D+00
   289  2.8800000000000D+00  0.0000000000000D+00  0.0000000000000D+00
   290  2.8900000000000D+00  0.0000000000000D+00  0.0000000000000D+00
   291  2.9000000000000D+00  0.0000000000000D+00  0.0000000000000D+00
   292  2.9100000000000D+00  0.0000000000000D+00  0.0000000000000D+00
   293  2.9200000000000D+00  0.0000000000000D+00  0.0000000000000D+00
   294  2.9300000000000D+00  0.0000000000000D+00  0.0000000000000D+00
   295  2.9400000000000D+00  0.0000000000000D+00  0.0000000000000D+00
   296  2.9500000000000D+00  0.0000000000000D+00  0.0000000000000D+00
   297  2.9600000000000D+00  0.0000000000000D+00  0.0000000000000D+00
   298  2.9700000000000D+00  0.0000000000000D+00  0.0000000000000D+00
   299  2.9800000000000D+00  0.0000000000000D+00  0.0000000000000D+00
   300  2.9900000000000D+00  0.0000000000000D+00  0.0000000000000D+00
   301  3.0000000000000D+00  0.0000000000000D+00  0.0000000000000D+00
   302  3.0100000000000D+00  0.0000000000000D+00  0.0000000000000D+00
   303  3.0200000000000D+00  0.0000000000000D+00  0.0000000000000D+00
   304  3.0300000000000D+00  0.0000000000000D+00  0.0000000000000D+00
   305  3.0400000000000D+00  0.0000000000000D+00  0.0000000000000D+00
   306  3.0500000000000D+00  0.0000000000000D+00  0.0000000000000D+00
   307  3.0600000000000D+00  0.0000000000000D+00  0.0000000000000D+00
   308  3.0700000000000D+00  0.0000000000000D+00  0.0000000000000D+00
   309  3.0800000000000D+00  0.0000000000000D+00  0.0000000000000D+00
   310  3.0900000000000D+00  0.0000000000000D+00  0.0000000000000D+00
   311  3.1000000000000D+00  0.0000000000000D+00  0.0000000000000D+00
   312  3.1100000000000D+00  0.0000000000000D+00  0.0000000000000D+00
   313  3.1200000000000D+00  0.0000000000000D+00  0.0000000000000D+00
   314  3.1300000000000D+00  0.0000000000000D+00  0.0000000000000D+00
   315  3.1400000000000D+00  0.0000000000000D+00  0.0000000000000D+00
   316  3.1500000000000D+00  0.0000000000000D+00  0.0000000000000D+00
   317  3.1600000000000D+00  0.0000000000000D+00  0.0000000000000D+00
   318  3.1700000000000D+00  0.0000000000000D+00  0.0000000000000D+00
   319  3.1800000000000D+00  0.0000000000000D+00  0.0000000000000D+00
   320  3.1900000000000D+00  0.0000000000000D+00  0.0000000000000D+00
   321  3.2000000000000D+00  0.0000000000000D+00  0.0000000000000D+00
   322  3.2100000000000D+00  0.0000000000000D+00  0.0000000000000D+00
   323  3.2200000000000D+00  0.0000000000000D+00  0.0000000000000D+00
   324  3.2300000000000D+00  0.0000000000000D+00  0.0000000000000D+00
   325  3.2400000000000D+00  0.0000000000000D+00  0.0000000000000D+00
   326  3.2500000000000D+00  0.0000000000000D+00  0.0000000000000D+00
   327  3.2600000000000D+00  0.0000000000000D+00  0.0000000000000D+00
   328  3.2700000000000D+00  0.0000000000000D+00  0.0000000000000D+00
   329  3.2800000000000D+00  0.0000000000000D+00  0.0000000000000D+00
   330  3.2900000000000D+00  0.0000000000000D+00  0.0000000000000D+00
   331  3.3000000000000D+00  0.0000000000000D+00  0.0000000000000D+00
   332  3.3100000000000D+00  0.0000000000000D+00  0.0000000000000D+00
   333  3.3200000000000D+00  0.0000000000000D+00  0.0000000000000D+00
   334  3.3300000000000D+00  0.0000000000000D+00  0.0000000000000D+00
   335  3.3400000000000D+00  0.0000000000000D+00  0.0000000000000D+00
   336  3.3500000000000D+00  0.0000000000000D+00  0.0000000000000D+00
   337  3.3600000000000D+00  0.0000000000000D+00  0.0000000000000D+00
   338  3.3700000000000D+00  0.0000000000000D+00  0.0000000000000D+00
   339  3.3800000000000D+00  0.0000000000000D+00  0.0000000000000D+00
   340  3.3900000000000D+00  0.0000000000000D+00  0.0000000000000D+00
   341  3.4000000000000D+00  0.0000000000000D+00  0.0000000000000D+00
   342  3.4100000000000D+00  0.0000000000000D+00  0.0000000000000D+00
   343  3.4200000000000D+00  0.0000000000000D+00  0.0000000000000D+00
   344  3.4300000000000D+00  0.0000000000000D+00  0.0000000000000D+00
   345  3.4400000000000D+00  0.0000000000000D+00  0.0000000000000D+00
   346  3.4500000000000D+00  0.0000000000000D+00  0.0000000000000D+00
   347  3.4600000000000D+00  0.0000000000000D+00  0.0000000000000D+00
   348  3.4700000000000D+00  0.0000000000000D+00  0.0000000000000D+00
   349  3.4800000000000D+00  0.0000000000000D+00  0.0000000000000D+00
   350  3.4900000000000D+00  0.0000000000000D+00  0.0000000000000D+00
   351  3.5000000000000D+00  0.0000000000000D+00  0.0000000000000D+00
   352  3.5100000000000D+00  0.0000000000000D+00  0.0000000000000D+00
   353  3.5200000000000D+00  0.0000000000000D+00  0.0000000000000D+00
   354  3.5300000000000D+00  0.0000000000000D+00  0.0000000000000D+00
   355  3.5400000000000D+00  0.0000000000000D+00  0.0000000000000D+00
   356  3.5500000000000D+00  0.0000000000000D+00  0.0000000000000D+00
   357  3.5600000000000D+00  0.0000000000000D+00  0.0000000000000D+00
   358  3.5700000000000D+00  0.0000000000000D+00  0.0000000000000D+00
   359  3.5800000000000D+00  0.0000000000000D+00  0.0000000000000D+00
   360  3.5900000000000D+00  0.0000000000000D+00  0.0000000000000D+00
   361  3.6000000000000D+00  0.0000000000000D+00  0.0000000000000D+00
   362  3.6100000000000D+00  0.0000000000000D+00  0.0000000000000D+00
   363  3.6200000000000D+00  0.0000000000000D+00  0.0000000000000D+00
   364  3.6300000000000D+00  0.0000000000000D+00  0.0000000000000D+00
   365  3.6400000000000D+00  0.0000000000000D+00  0.0000000000000D+00
   366  3.6500000000000D+00  0.0000000000000D+00  0.0000000000000D+00
   367  3.6600000000000D+00  0.0000000000000D+00  0.0000000000000D+00
   368  3.6700000000000D+00  0.0000000000000D+00  0.0000000000000D+00
   369  3.6800000000000D+00  0.0000000000000D+00  0.0000000000000D+00
   370  3.6900000000000D+00  0.0000000000000D+00  0.0000000000000D+00
   371  3.7000000000000D+00  0.0000000000000D+00  0.0000000000000D+00
   372  3.7100000000000D+00  0.0000000000000D+00  0.0000000000000D+00
   373  3.7200000000000D+00  0.0000000000000D+00  0.0000000000000D+00
   374  3.7300000000000D+00  0.0000000000000D+00  0.0000000000000D+00
   375  3.7400000000000D+00  0.0000000000000D+00  0.0000000000000D+00
   376  3.7500000000000D+00  0.0000000000000D+00  0.0000000000000D+00
   377  3.7600000000000D+00  0.0000000000000D+00  0.0000000000000D+00
   378  3.7700000000000D+00  0.0000000000000D+00  0.0000000000000D+00
   379  3.7800000000000D+00  0.0000000000000D+00  0.0000000000000D+00
   380  3.7900000000000D+00  0.0000000000000D+00  0.0000000000000D+00
   381  3.8000000000000D+00  0.0000000000000D+00  0.0000000000000D+00
   382  3.8100000000000D+00  0.0000000000000D+00  0.0000000000000D+00
   383  3.8200000000000D+00  0.0000000000000D+00  0.0000000000000D+00
   384  3.8300000000000D+00  0.0000000000000D+00  0.0000000000000D+00
   385  3.8400000000000D+00  0.0000000000000D+00  0.0000000000000D+00
   386  3.8500000000000D+00  0.0000000000000D+00  0.0000000000000D+00
   387  3.8600000000000D+00  0.0000000000000D+00  0.0000000000000D+00
   388  3.8700000000000D+00  0.0000000000000D+00  0.0000000000000D+00
   389  3.8800000000000D+00  0.0000000000000D+00  0.0000000000000D+00
   390  3.8900000000000D+00  0.0000000000000D+00  0.0000000000000D+00
   391  3.9000000000000D+00  0.0000000000000D+00  0.0000000000000D+00
   392  3.9100000000000D+00  0.0000000000000D+00  0.0000000000000D+00
   393  3.9200000000000D+00  0.0000000000000D+00  0.0000000000000D+00
   394  3.9300000000000D+00  0.0000000000000D+00  0.0000000000000D+00
   395  3.9400000000000D+00  0.0000000000000D+00  0.0000000000000D+00
   396  3.9500000000000D+00  0.0000000000000D+00  0.0000000000000D+00
   397  3.9600000000000D+00  0.0000000000000D+00  0.0000000000000D+00
   398  3.9700000000000D+00  0.0000000000000D+00  0.0000000000000D+00
   399  3.9800000000000D+00  0.0000000000000D+00  0.0000000000000D+00
   400  3.9900000000000D+00  0.0000000000000D+00  0.0000000000000D+00
   401  4.0000000000000D+00  0.0000000000000D+00  0.0000000000000D+00
   402  4.0100000000000D+00  0.0000000000000D+00  0.0000000000000D+00
   403  4.0200000000000D+00  0.0000000000000D+00  0.0000000000000D+00
   404  4.0300000000000D+00  0.0000000000000D+00  0.0000000000000D+00
   405  4.0400000000000D+00  0.0000000000000D+00  0.0000000000000D+00
   406  4.0500000000000D+00  0.0000000000000D+00  0.0000000000000D+00
   407  4.0600000000000D+00  0.0000000000000D+00  0.0000000000000D+00
   408  4.0700000000000D+00  0.0000000000000D+00  0.0000000000000D+00
   409  4.0800000000000D+00  0.0000000000000D+00  0.0000000000000D+00
   410  4.0900000000000D+00  0.0000000000000D+00  0.0000000000000D+00
   411  4.1000000000000D+00  0.0000000000000D+00  0.0000000000000D+00
   412  4.1100000000000D+00  0.0000000000000D+00  0.0000000000000D+00
   413  4.1200000000000D+00  0.0000000000000D+00  0.0000000000000D+00
   414  4.1300000000000D+00  0.0000000000000D+00  0.0000000000000D+00
   415  4.1400000000000D+00  0.0000000000000D+00  0.0000000000000D+00
   416  4.1500000000000D+00  0.0000000000000D+00  0.0000000000000D+00
   417  4.1600000000000D+00  0.0000000000000D+00  0.0000000000000D+00
   418  4.1700000000000D+00  0.0000000000000D+00  0.0000000000000D+00
   419  4.1800000000000D+00  0.0000000000000D+00  0.0000000000000D+00
   420  4.1900000000000D+00  0.0000000000000D+00  0.0000000000000D+00
   421  4.2000000000000D+00  0.0000000000000D+00  0.0000000000000D+00
   422  4.2100000000000D+00  0.0000000000000D+00  0.0000000000000D+00