Pr    ONCVPSP-3.3.0  r_core=   2.02064   1.61087   1.85877   1.66956
     59.0000     13.0000      220117    zatom,zion,pspd
     8      11   3     4   600     0    pspcod,pspxc,lmax,lloc,mmax,r2well
  5.99000000  0.00000000  0.00000000    rchrg fchrg qchrg
     2     2     2     2     0    nproj
     1     1           extension_switch
   0                         6.9122673465954D+00  6.1450880708849D-01
     1  0.0000000000000D+00 -1.9878210189006D-11  1.1945347488940D-10
     2  1.0000000000000D-02  3.6178908807900D-02 -1.5382058011358D-02
     3  2.0000000000000D-02  7.2325515357021D-02 -3.0680774754351D-02
     4  3.0000000000000D-02  1.0840759844323D-01 -4.5813382456488D-02
     5  4.0000000000000D-02  1.4439309836039D-01 -6.0698256034457D-02
     6  5.0000000000000D-02  1.8025019612608D-01 -7.5255473712671D-02
     7  6.0000000000000D-02  2.1594739089368D-01 -8.9407364855298D-02
     8  7.0000000000000D-02  2.5145357496946D-01 -1.0307904089030D-01
     9  8.0000000000000D-02  2.8673810587360D-01 -1.1619890532348D-01
    10  9.0000000000000D-02  3.2177087490839D-01 -1.2869913898849D-01
    11  1.0000000000000D-01  3.5652237172603D-01 -1.4051615685417D-01
    12  1.1000000000000D-01  3.9096374442207D-01 -1.5159103291266D-01
    13  1.2000000000000D-01  4.2506685471784D-01 -1.6186988989864D-01
    14  1.3000000000000D-01  4.5880432783681D-01 -1.7130425084119D-01
    15  1.4000000000000D-01  4.9214959672461D-01 -1.7985134972253D-01
    16  1.5000000000000D-01  5.2507694031061D-01 -1.8747439881140D-01
    17  1.6000000000000D-01  5.5756151555994D-01 -1.9414281055102D-01
    18  1.7000000000000D-01  5.8957938311830D-01 -1.9983237220974D-01
    19  1.8000000000000D-01  6.2110752640744D-01 -2.0452537184564D-01
    20  1.9000000000000D-01  6.5212386408648D-01 -2.0821067449122D-01
    21  2.0000000000000D-01  6.8260725585257D-01 -2.1088374782916D-01
    22  2.1000000000000D-01  7.1253750161392D-01 -2.1254663700243D-01
    23  2.2000000000000D-01  7.4189533412750D-01 -2.1320788857876D-01
    24  2.3000000000000D-01  7.7066240525341D-01 -2.1288242406919D-01
    25  2.4000000000000D-01  7.9882126603675D-01 -2.1159136377902D-01
    26  2.5000000000000D-01  8.2635534088540D-01 -2.0936180214575D-01
    27  2.6000000000000D-01  8.5324889616852D-01 -2.0622653608889D-01
    28  2.7000000000000D-01  8.7948700361460D-01 -2.0222374825863D-01
    29  2.8000000000000D-01  9.0505549893952D-01 -1.9739664742152D-01
    30  2.9000000000000D-01  9.2994093618373D-01 -1.9179306855910D-01
    31  3.0000000000000D-01  9.5413053828286D-01 -1.8546503557687D-01
    32  3.1000000000000D-01  9.7761214443740D-01 -1.7846828982431D-01
    33  3.2000000000000D-01  1.0003741548842D+00 -1.7086178790856D-01
    34  3.3000000000000D-01  1.0224054737047D+00 -1.6270717254361D-01
    35  3.4000000000000D-01  1.0436954503334D+00 -1.5406822041031D-01
    36  3.5000000000000D-01  1.0642338204492D+00 -1.4501027120910D-01
    37  3.6000000000000D-01  1.0840106469529D+00 -1.3559964226395D-01
    38  3.7000000000000D-01  1.1030162617407D+00 -1.2590303318294D-01
    39  3.8000000000000D-01  1.1212412089908D+00 -1.1598692519409D-01
    40  3.9000000000000D-01  1.1386761906761D+00 -1.0591697985594D-01
    41  4.0000000000000D-01  1.1553120150096D+00 -9.5757441887598D-02
    42  4.1000000000000D-01  1.1711395485134D+00 -8.5570550873270D-02
    43  4.2000000000000D-01  1.1861496723801D+00 -7.5415966570251D-02
    44  4.3000000000000D-01  1.2003332437703D+00 -6.5350212487341D-02
    45  4.4000000000000D-01  1.2136810626519D+00 -5.5426142301611D-02
    46  4.5000000000000D-01  1.2261838447503D+00 -4.5692433546888D-02
    47  4.6000000000000D-01  1.2378322011290D+00 -3.6193112836664D-02
    48  4.7000000000000D-01  1.2486166248698D+00 -2.6967116678825D-02
    49  4.8000000000000D-01  1.2585274852625D+00 -1.8047891700599D-02
    50  4.9000000000000D-01  1.2675550298518D+00 -9.4630378302129D-03
    51  5.0000000000000D-01  1.2756893946221D+00 -1.2339976798672D-03
    52  5.1000000000000D-01  1.2829206225259D+00  6.6242049568263D-03
    53  5.2000000000000D-01  1.2892386904897D+00  1.4103174937400D-02
    54  5.3000000000000D-01  1.2946335449491D+00  2.1201301759501D-02
    55  5.4000000000000D-01  1.2990951458855D+00  2.7923859936478D-02
    56  5.5000000000000D-01  1.3026135192514D+00  3.4283052411114D-02
    57  5.6000000000000D-01  1.3051788175894D+00  4.0297996097197D-02
    58  5.7000000000000D-01  1.3067813885621D+00  4.5994649087575D-02
    59  5.8000000000000D-01  1.3074118510279D+00  5.1405679525281D-02
    60  5.9000000000000D-01  1.3070611782120D+00  5.6570276598154D-02
    61  6.0000000000000D-01  1.3057207874426D+00  6.1533904579638D-02
    62  6.1000000000000D-01  1.3033826358400D+00  6.6348001301785D-02
    63  6.2000000000000D-01  1.3000393212750D+00  7.1069622899436D-02
    64  6.3000000000000D-01  1.2956841878385D+00  7.5761037109209D-02
    65  6.4000000000000D-01  1.2903114349987D+00  8.0489267836938D-02
    66  6.5000000000000D-01  1.2839162295646D+00  8.5325594116426D-02
    67  6.6000000000000D-01  1.2764948195182D+00  9.0345006973185D-02
    68  6.7000000000000D-01  1.2680446487321D+00  9.5625628068310D-02
    69  6.8000000000000D-01  1.2585644715537D+00  1.0124809433099D-01
    70  6.9000000000000D-01  1.2480544662035D+00  1.0729491308897D-01
    71  7.0000000000000D-01  1.2365163459188D+00  1.1384979247103D-01
    72  7.1000000000000D-01  1.2239534667595D+00  1.2099695208062D-01
    73  7.2000000000000D-01  1.2103709309961D+00  1.2882041912512D-01
    74  7.3000000000000D-01  1.1957756850058D+00  1.3740331532561D-01
    75  7.4000000000000D-01  1.1801766106255D+00  1.4682714002861D-01
    76  7.5000000000000D-01  1.1635846089394D+00  1.5717105498991D-01
    77  7.6000000000000D-01  1.1460126755234D+00  1.6851117630218D-01
    78  7.7000000000000D-01  1.1274759662164D+00  1.8091987889195D-01
    79  7.8000000000000D-01  1.1079918525560D+00  1.9446511891596D-01
    80  7.9000000000000D-01  1.0875799660844D+00  2.0920977924529D-01
    81  8.0000000000000D-01  1.0662622308165D+00  2.2521104303536D-01
    82  8.1000000000000D-01  1.0440628832501D+00  2.4251980014573D-01
    83  8.2000000000000D-01  1.0210084794015D+00  2.6118009089511D-01
    84  8.3000000000000D-01  9.9712788845436D-01  2.8122859131819D-01
    85  8.4000000000000D-01  9.7245227272529D-01  3.0269414373327D-01
    86  8.5000000000000D-01  9.4701505377041D-01  3.2559733603859D-01
    87  8.6000000000000D-01  9.2085186457994D-01  3.4995013273217D-01
    88  8.7000000000000D-01  8.9400048793747D-01  3.7575556020173D-01
    89  8.8000000000000D-01  8.6650078115022D-01  4.0300744836084D-01
    90  8.9000000000000D-01  8.3839458748756D-01  4.3169023022021D-01
    91  9.0000000000000D-01  8.0972563479559D-01  4.6177880048544D-01
    92  9.1000000000000D-01  7.8053942188363D-01  4.9323843376849D-01
    93  9.2000000000000D-01  7.5088309340310D-01  5.2602476249728D-01
    94  9.3000000000000D-01  7.2080530405843D-01  5.6008381411127D-01
    95  9.4000000000000D-01  6.9035607310253D-01  5.9535210664431D-01
    96  9.5000000000000D-01  6.5958663017295D-01  6.3175680133426D-01
    97  9.6000000000000D-01  6.2854925361959D-01  6.6921591045451D-01
    98  9.7000000000000D-01  5.9729710255799D-01  7.0763855815135D-01
    99  9.8000000000000D-01  5.6588404395234D-01  7.4692529169826D-01
   100  9.9000000000000D-01  5.3436447608830D-01  7.8696844024394D-01
   101  1.0000000000000D+00  5.0279314983730D-01  8.2765251784393D-01
   102  1.0100000000000D+00  4.7122498913797D-01  8.6885466732991D-01
   103  1.0200000000000D+00  4.3971491212733D-01  9.1044514138920D-01
   104  1.0300000000000D+00  4.0831765434430D-01  9.5228781710750D-01
   105  1.0400000000000D+00  3.7708759539789D-01  9.9424074015947D-01
   106  1.0500000000000D+00  3.4607859044320D-01  1.0361566948383D+00
   107  1.0600000000000D+00  3.1534380774086D-01  1.0778837961773D+00
   108  1.0700000000000D+00  2.8493557348572D-01  1.1192661005483D+00
   109  1.0800000000000D+00  2.5490522498471D-01  1.1601442313155D+00
   110  1.0900000000000D+00  2.2530297314469D-01  1.2003560163568D+00
   111  1.1000000000000D+00  1.9617777507518D-01  1.2397371346075D+00
   112  1.1100000000000D+00  1.6757721746431D-01  1.2781217691174D+00
   113  1.1200000000000D+00  1.3954741118803D-01  1.3153432645821D+00
   114  1.1300000000000D+00  1.1213289746881D-01  1.3512347876556D+00
   115  1.1400000000000D+00  8.5376565645942D-02  1.3856299889781D+00
   116  1.1500000000000D+00  5.9319582445802D-02  1.4183636662842D+00
   117  1.1600000000000D+00  3.4001332383547D-02  1.4492724285923D+00
   118  1.1700000000000D+00  9.4593687821371D-03  1.4781953618343D+00
   119  1.1800000000000D+00 -1.4270625423834D-02  1.5049746970662D+00
   120  1.1900000000000D+00 -3.7154868099983D-02  1.5294564827892D+00
   121  1.2000000000000D+00 -5.9161500765869D-02  1.5514912634248D+00
   122  1.2100000000000D+00 -8.0260605299301D-02  1.5709347664063D+00
   123  1.2200000000000D+00 -1.0042421615530D-01  1.5876486008708D+00
   124  1.2300000000000D+00 -1.1962632990361D-01  1.6015009711136D+00
   125  1.2400000000000D+00 -1.3784291398983D-01  1.6123674082011D+00
   126  1.2500000000000D+00 -1.5505191687143D-01  1.6201315234070D+00
   127  1.2600000000000D+00 -1.7123328167613D-01  1.6246857868355D+00
   128  1.2700000000000D+00 -1.8636896561282D-01  1.6259323347236D+00
   129  1.2800000000000D+00 -2.0044296744383D-01  1.6237838085390D+00
   130  1.2900000000000D+00 -2.1344136517192D-01  1.6181642279901D+00
   131  1.3000000000000D+00 -2.2535236616317D-01  1.6090099002640D+00
   132  1.3100000000000D+00 -2.3616637175128D-01  1.5962703663210D+00
   133  1.3200000000000D+00 -2.4587605792295D-01  1.5799093829202D+00
   134  1.3300000000000D+00 -2.5447647397282D-01  1.5599059403173D+00
   135  1.3400000000000D+00 -2.6196516013082D-01  1.5362553109605D+00
   136  1.3500000000000D+00 -2.6834228472431D-01  1.5089701227495D+00
   137  1.3600000000000D+00 -2.7361080184601D-01  1.4780814519706D+00
   138  1.3700000000000D+00 -2.7777662840098D-01  1.4436399215588D+00
   139  1.3800000000000D+00 -2.8084883993383D-01  1.4057167928660D+00
   140  1.3900000000000D+00 -2.8283988393266D-01  1.3644050356735D+00
   141  1.4000000000000D+00 -2.8376580633223D-01  1.3198203487084D+00
   142  1.4100000000000D+00 -2.8364648979768D-01  1.2721021149065D+00
   143  1.4200000000000D+00 -2.8250589696292D-01  1.2214142528068D+00
   144  1.4300000000000D+00 -2.8037231304409D-01  1.1679459309654D+00
   145  1.4400000000000D+00 -2.7727858205985D-01  1.1119121110966D+00
   146  1.4500000000000D+00 -2.7326232348754D-01  1.0535538555657D+00
   147  1.4600000000000D+00 -2.6836612450732D-01  9.9313836867588D-01
   148  1.4700000000000D+00 -2.6263768950997D-01  9.3095868636618D-01
   149  1.4800000000000D+00 -2.5612993611044D-01  8.6733295979158D-01
   150  1.4900000000000D+00 -2.4890102073355D-01  8.0260325302798D-01
   151  1.5000000000000D+00 -2.4101427069492D-01  7.3713375076675D-01
   152  1.5100000000000D+00 -2.3253801011565D-01  6.7130831336551D-01
   153  1.5200000000000D+00 -2.2354524202059D-01  6.0552721678280D-01
   154  1.5300000000000D+00 -2.1411317602501D-01  5.4020302297403D-01
   155  1.5400000000000D+00 -2.0432255442688D-01  4.7575538025279D-01
   156  1.5500000000000D+00 -1.9425675740413D-01  4.1260466440406D-01
   157  1.5600000000000D+00 -1.8400062457875D-01  3.5116415599366D-01
   158  1.5700000000000D+00 -1.7363905556551D-01  2.9183125695142D-01
   159  1.5800000000000D+00 -1.6325493911729D-01  2.3497491072038D-01
   160  1.5900000000000D+00 -1.5292768779532D-01  1.8092747388561D-01
   161  1.6000000000000D+00 -1.4272987933631D-01  1.2996565505716D-01
   162  1.6100000000000D+00 -1.3272245200457D-01  8.2281646050509D-02
   163  1.6200000000000D+00 -1.2295552776302D-01  3.7994064657809D-02
   164  1.6300000000000D+00 -1.1346887055571D-01 -2.8424125561116D-03
   165  1.6400000000000D+00 -1.0429490699212D-01 -4.0215330362540D-02
   166  1.6500000000000D+00 -9.5463705775360D-02 -7.4119210258098D-02
   167  1.6600000000000D+00 -8.7001447962773D-02 -1.0456549360218D-01
   168  1.6700000000000D+00 -7.8929878466646D-02 -1.3158682660891D-01
   169  1.6800000000000D+00 -7.1266973949919D-02 -1.5523189174175D-01
   170  1.6900000000000D+00 -6.4026712753376D-02 -1.7556702219655D-01
   171  1.7000000000000D+00 -5.7219251835699D-02 -1.9267494939524D-01
   172  1.7100000000000D+00 -5.0851008460866D-02 -2.0665428290041D-01
   173  1.7200000000000D+00 -4.4924787013281D-02 -2.1761873743859D-01
   174  1.7300000000000D+00 -3.9439927104693D-02 -2.2569626574074D-01
   175  1.7400000000000D+00 -3.4392474671777D-02 -2.3102808972773D-01
   176  1.7500000000000D+00 -2.9775371857274D-02 -2.3376764952435D-01
   177  1.7600000000000D+00 -2.5578666888151D-02 -2.3407946509556D-01
   178  1.7700000000000D+00 -2.1789739860465D-02 -2.3213792940117D-01
   179  1.7800000000000D+00 -1.8393544840810D-02 -2.2812603156698D-01
   180  1.7900000000000D+00 -1.5372864638313D-02 -2.2223402691685D-01
   181  1.8000000000000D+00 -1.2708577712819D-02 -2.1465805666098D-01
   182  1.8100000000000D+00 -1.0379934364580D-02 -2.0559873034852D-01
   183  1.8200000000000D+00 -8.3648403760504D-03 -1.9525968002223D-01
   184  1.8300000000000D+00 -6.6401455937083D-03 -1.8384609784706D-01
   185  1.8400000000000D+00 -5.1819360253110D-03 -1.7156326342187D-01
   186  1.8500000000000D+00 -3.9658278108536D-03 -1.5861506823678D-01
   187  1.8600000000000D+00 -2.9672595076768D-03 -1.4520255461389D-01
   188  1.8700000000000D+00 -2.1617792143489D-03 -1.3152248620532D-01
   189  1.8800000000000D+00 -1.5253265948534D-03 -1.1776594859252D-01
   190  1.8900000000000D+00 -1.0345090864988D-03 -1.0411698176834D-01
   191  1.9000000000000D+00 -6.6686948384552D-04 -9.0751259200304D-02
   192  1.9100000000000D+00 -4.0113832903996D-04 -7.7834845487994D-02
   193  1.9200000000000D+00 -2.1747449710123D-04 -6.5523015091123D-02
   194  1.9300000000000D+00 -9.7690072897898D-05 -5.3959150178665D-02
   195  1.9400000000000D+00 -2.5458881351421D-05 -4.3273720788456D-02
   196  1.9500000000000D+00  1.3493697876015D-05 -3.3583765186934D-02
   197  1.9600000000000D+00  3.1229068622079D-05 -2.4998330085305D-02
   198  1.9700000000000D+00  3.7407947273112D-05 -1.7584247517978D-02
   199  1.9800000000000D+00  3.8726611601192D-05 -1.1384305448359D-02
   200  1.9900000000000D+00  4.0727168485008D-05 -6.5290681506026D-03
   201  2.0000000000000D+00  4.6998882624810D-05 -3.1366734872673D-03
   202  2.0100000000000D+00  5.5201145987294D-05 -1.1431240820261D-03
   203  2.0200000000000D+00  5.4730482674177D-05 -2.0223949555637D-04
   204  2.0300000000000D+00  3.5360027263335D-05  8.8975784262761D-05
   205  2.0400000000000D+00  1.0346657715141D-05  5.3657799535443D-05
   206  2.0500000000000D+00 -4.5405951514101D-06 -2.9628047701692D-05
   207  2.0600000000000D+00 -5.0799756637512D-06 -3.8658309262094D-05
   208  2.0700000000000D+00  1.2275205031650D-07  5.8680765262235D-07
   209  2.0800000000000D+00  1.3190724567909D-06  6.9688356739462D-06
   210  2.0900000000000D+00  6.1750430204063D-07  3.5084912244833D-06
   211  2.1000000000000D+00 -1.1025587674985D-07  3.4304713635265D-07
   212  2.1100000000000D+00 -1.3734784153220D-07  4.2734033877158D-07
   213  2.1200000000000D+00  0.0000000000000D+00  0.0000000000000D+00
   214  2.1300000000000D+00  0.0000000000000D+00  0.0000000000000D+00
   215  2.1400000000000D+00  0.0000000000000D+00  0.0000000000000D+00
   216  2.1500000000000D+00  0.0000000000000D+00  0.0000000000000D+00
   217  2.1600000000000D+00  0.0000000000000D+00  0.0000000000000D+00
   218  2.1700000000000D+00  0.0000000000000D+00  0.0000000000000D+00
   219  2.1800000000000D+00  0.0000000000000D+00  0.0000000000000D+00
   220  2.1900000000000D+00  0.0000000000000D+00  0.0000000000000D+00
   221  2.2000000000000D+00  0.0000000000000D+00  0.0000000000000D+00
   222  2.2100000000000D+00  0.0000000000000D+00  0.0000000000000D+00
   223  2.2200000000000D+00  0.0000000000000D+00  0.0000000000000D+00
   224  2.2300000000000D+00  0.0000000000000D+00  0.0000000000000D+00
   225  2.2400000000000D+00  0.0000000000000D+00  0.0000000000000D+00
   226  2.2500000000000D+00  0.0000000000000D+00  0.0000000000000D+00
   227  2.2600000000000D+00  0.0000000000000D+00  0.0000000000000D+00
   228  2.2700000000000D+00  0.0000000000000D+00  0.0000000000000D+00
   229  2.2800000000000D+00  0.0000000000000D+00  0.0000000000000D+00
   230  2.2900000000000D+00  0.0000000000000D+00  0.0000000000000D+00
   231  2.3000000000000D+00  0.0000000000000D+00  0.0000000000000D+00
   232  2.3100000000000D+00  0.0000000000000D+00  0.0000000000000D+00
   233  2.3200000000000D+00  0.0000000000000D+00  0.0000000000000D+00
   234  2.3300000000000D+00  0.0000000000000D+00  0.0000000000000D+00
   235  2.3400000000000D+00  0.0000000000000D+00  0.0000000000000D+00
   236  2.3500000000000D+00  0.0000000000000D+00  0.0000000000000D+00
   237  2.3600000000000D+00  0.0000000000000D+00  0.0000000000000D+00
   238  2.3700000000000D+00  0.0000000000000D+00  0.0000000000000D+00
   239  2.3800000000000D+00  0.0000000000000D+00  0.0000000000000D+00
   240  2.3900000000000D+00  0.0000000000000D+00  0.0000000000000D+00
   241  2.4000000000000D+00  0.0000000000000D+00  0.0000000000000D+00
   242  2.4100000000000D+00  0.0000000000000D+00  0.0000000000000D+00
   243  2.4200000000000D+00  0.0000000000000D+00  0.0000000000000D+00
   244  2.4300000000000D+00  0.0000000000000D+00  0.0000000000000D+00
   245  2.4400000000000D+00  0.0000000000000D+00  0.0000000000000D+00
   246  2.4500000000000D+00  0.0000000000000D+00  0.0000000000000D+00
   247  2.4600000000000D+00  0.0000000000000D+00  0.0000000000000D+00
   248  2.4700000000000D+00  0.0000000000000D+00  0.0000000000000D+00
   249  2.4800000000000D+00  0.0000000000000D+00  0.0000000000000D+00
   250  2.4900000000000D+00  0.0000000000000D+00  0.0000000000000D+00
   251  2.5000000000000D+00  0.0000000000000D+00  0.0000000000000D+00
   252  2.5100000000000D+00  0.0000000000000D+00  0.0000000000000D+00
   253  2.5200000000000D+00  0.0000000000000D+00  0.0000000000000D+00
   254  2.5300000000000D+00  0.0000000000000D+00  0.0000000000000D+00
   255  2.5400000000000D+00  0.0000000000000D+00  0.0000000000000D+00
   256  2.5500000000000D+00  0.0000000000000D+00  0.0000000000000D+00
   257  2.5600000000000D+00  0.0000000000000D+00  0.0000000000000D+00
   258  2.5700000000000D+00  0.0000000000000D+00  0.0000000000000D+00
   259  2.5800000000000D+00  0.0000000000000D+00  0.0000000000000D+00
   260  2.5900000000000D+00  0.0000000000000D+00  0.0000000000000D+00
   261  2.6000000000000D+00  0.0000000000000D+00  0.0000000000000D+00
   262  2.6100000000000D+00  0.0000000000000D+00  0.0000000000000D+00
   263  2.6200000000000D+00  0.0000000000000D+00  0.0000000000000D+00
   264  2.6300000000000D+00  0.0000000000000D+00  0.0000000000000D+00
   265  2.6400000000000D+00  0.0000000000000D+00  0.0000000000000D+00
   266  2.6500000000000D+00  0.0000000000000D+00  0.0000000000000D+00
   267  2.6600000000000D+00  0.0000000000000D+00  0.0000000000000D+00
   268  2.6700000000000D+00  0.0000000000000D+00  0.0000000000000D+00
   269  2.6800000000000D+00  0.0000000000000D+00  0.0000000000000D+00
   270  2.6900000000000D+00  0.0000000000000D+00  0.0000000000000D+00
   271  2.7000000000000D+00  0.0000000000000D+00  0.0000000000000D+00
   272  2.7100000000000D+00  0.0000000000000D+00  0.0000000000000D+00
   273  2.7200000000000D+00  0.0000000000000D+00  0.0000000000000D+00
   274  2.7300000000000D+00  0.0000000000000D+00  0.0000000000000D+00
   275  2.7400000000000D+00  0.0000000000000D+00  0.0000000000000D+00
   276  2.7500000000000D+00  0.0000000000000D+00  0.0000000000000D+00
   277  2.7600000000000D+00  0.0000000000000D+00  0.0000000000000D+00
   278  2.7700000000000D+00  0.0000000000000D+00  0.0000000000000D+00
   279  2.7800000000000D+00  0.0000000000000D+00  0.0000000000000D+00
   280  2.7900000000000D+00  0.0000000000000D+00  0.0000000000000D+00
   281  2.8000000000000D+00  0.0000000000000D+00  0.0000000000000D+00
   282  2.8100000000000D+00  0.0000000000000D+00  0.0000000000000D+00
   283  2.8200000000000D+00  0.0000000000000D+00  0.0000000000000D+00
   284  2.8300000000000D+00  0.0000000000000D+00  0.0000000000000D+00
   285  2.8400000000000D+00  0.0000000000000D+00  0.0000000000000D+00
   286  2.8500000000000D+00  0.0000000000000D+00  0.0000000000000D+00
   287  2.8600000000000D+00  0.0000000000000D+00  0.0000000000000D+00
   288  2.8700000000000D+00  0.0000000000000D+00  0.0000000000000D+00
   289  2.8800000000000D+00  0.0000000000000D+00  0.0000000000000D+00
   290  2.8900000000000D+00  0.0000000000000D+00  0.0000000000000D+00
   291  2.9000000000000D+00  0.0000000000000D+00  0.0000000000000D+00
   292  2.9100000000000D+00  0.0000000000000D+00  0.0000000000000D+00
   293  2.9200000000000D+00  0.0000000000000D+00  0.0000000000000D+00
   294  2.9300000000000D+00  0.0000000000000D+00  0.0000000000000D+00
   295  2.9400000000000D+00  0.0000000000000D+00  0.0000000000000D+00
   296  2.9500000000000D+00  0.0000000000000D+00  0.0000000000000D+00
   297  2.9600000000000D+00  0.0000000000000D+00  0.0000000000000D+00
   298  2.9700000000000D+00  0.0000000000000D+00  0.0000000000000D+00
   299  2.9800000000000D+00  0.0000000000000D+00  0.0000000000000D+00
   300  2.9900000000000D+00  0.0000000000000D+00  0.0000000000000D+00
   301  3.0000000000000D+00  0.0000000000000D+00  0.0000000000000D+00
   302  3.0100000000000D+00  0.0000000000000D+00  0.0000000000000D+00
   303  3.0200000000000D+00  0.0000000000000D+00  0.0000000000000D+00
   304  3.0300000000000D+00  0.0000000000000D+00  0.0000000000000D+00
   305  3.0400000000000D+00  0.0000000000000D+00  0.0000000000000D+00
   306  3.0500000000000D+00  0.0000000000000D+00  0.0000000000000D+00
   307  3.0600000000000D+00  0.0000000000000D+00  0.0000000000000D+00
   308  3.0700000000000D+00  0.0000000000000D+00  0.0000000000000D+00
   309  3.0800000000000D+00  0.0000000000000D+00  0.0000000000000D+00
   310  3.0900000000000D+00  0.0000000000000D+00  0.0000000000000D+00
   311  3.1000000000000D+00  0.0000000000000D+00  0.0000000000000D+00
   312  3.1100000000000D+00  0.0000000000000D+00  0.0000000000000D+00
   313  3.1200000000000D+00  0.0000000000000D+00  0.0000000000000D+00
   314  3.1300000000000D+00  0.0000000000000D+00  0.0000000000000D+00
   315  3.1400000000000D+00  0.0000000000000D+00  0.0000000000000D+00
   316  3.1500000000000D+00  0.0000000000000D+00  0.0000000000000D+00
   317  3.1600000000000D+00  0.0000000000000D+00  0.0000000000000D+00
   318  3.1700000000000D+00  0.0000000000000D+00  0.0000000000000D+00
   319  3.1800000000000D+00  0.0000000000000D+00  0.0000000000000D+00
   320  3.1900000000000D+00  0.0000000000000D+00  0.0000000000000D+00
   321  3.2000000000000D+00  0.0000000000000D+00  0.0000000000000D+00
   322  3.2100000000000D+00  0.0000000000000D+00  0.0000000000000D+00
   323  3.2200000000000D+00  0.0000000000000D+00  0.0000000000000D+00
   324  3.2300000000000D+00  0.0000000000000D+00  0.0000000000000D+00
   325  3.2400000000000D+00  0.0000000000000D+00  0.0000000000000D+00
   326  3.2500000000000D+00  0.0000000000000D+00  0.0000000000000D+00
   327  3.2600000000000D+00  0.0000000000000D+00  0.0000000000000D+00
   328  3.2700000000000D+00  0.0000000000000D+00  0.0000000000000D+00
   329  3.2800000000000D+00  0.0000000000000D+00  0.0000000000000D+00
   330  3.2900000000000D+00  0.0000000000000D+00  0.0000000000000D+00
   331  3.3000000000000D+00  0.0000000000000D+00  0.0000000000000D+00
   332  3.3100000000000D+00  0.0000000000000D+00  0.0000000000000D+00
   333  3.3200000000000D+00  0.0000000000000D+00  0.0000000000000D+00
   334  3.3300000000000D+00  0.0000000000000D+00  0.0000000000000D+00
   335  3.3400000000000D+00  0.0000000000000D+00  0.0000000000000D+00
   336  3.3500000000000D+00  0.0000000000000D+00  0.0000000000000D+00
   337  3.3600000000000D+00  0.0000000000000D+00  0.0000000000000D+00
   338  3.3700000000000D+00  0.0000000000000D+00  0.0000000000000D+00
   339  3.3800000000000D+00  0.0000000000000D+00  0.0000000000000D+00
   340  3.3900000000000D+00  0.0000000000000D+00  0.0000000000000D+00
   341  3.4000000000000D+00  0.0000000000000D+00  0.0000000000000D+00
   342  3.4100000000000D+00  0.0000000000000D+00  0.0000000000000D+00
   343  3.4200000000000D+00  0.0000000000000D+00  0.0000000000000D+00
   344  3.4300000000000D+00  0.0000000000000D+00  0.0000000000000D+00
   345  3.4400000000000D+00  0.0000000000000D+00  0.0000000000000D+00
   346  3.4500000000000D+00  0.0000000000000D+00  0.0000000000000D+00
   347  3.4600000000000D+00  0.0000000000000D+00  0.0000000000000D+00
   348  3.4700000000000D+00  0.0000000000000D+00  0.0000000000000D+00
   349  3.4800000000000D+00  0.0000000000000D+00  0.0000000000000D+00
   350  3.4900000000000D+00  0.0000000000000D+00  0.0000000000000D+00
   351  3.5000000000000D+00  0.0000000000000D+00  0.0000000000000D+00
   352  3.5100000000000D+00  0.0000000000000D+00  0.0000000000000D+00
   353  3.5200000000000D+00  0.0000000000000D+00  0.0000000000000D+00
   354  3.5300000000000D+00  0.0000000000000D+00  0.0000000000000D+00
   355  3.5400000000000D+00  0.0000000000000D+00  0.0000000000000D+00
   356  3.5500000000000D+00  0.0000000000000D+00  0.0000000000000D+00
   357  3.5600000000000D+00  0.0000000000000D+00  0.0000000000000D+00
   358  3.5700000000000D+00  0.0000000000000D+00  0.0000000000000D+00
   359  3.5800000000000D+00  0.0000000000000D+00  0.0000000000000D+00
   360  3.5900000000000D+00  0.0000000000000D+00  0.0000000000000D+00
   361  3.6000000000000D+00  0.0000000000000D+00  0.0000000000000D+00
   362  3.6100000000000D+00  0.0000000000000D+00  0.0000000000000D+00
   363  3.6200000000000D+00  0.0000000000000D+00  0.0000000000000D+00
   364  3.6300000000000D+00  0.0000000000000D+00  0.0000000000000D+00
   365  3.6400000000000D+00  0.0000000000000D+00  0.0000000000000D+00
   366  3.6500000000000D+00  0.0000000000000D+00  0.0000000000000D+00
   367  3.6600000000000D+00  0.0000000000000D+00  0.0000000000000D+00
   368  3.6700000000000D+00  0.0000000000000D+00  0.0000000000000D+00
   369  3.6800000000000D+00  0.0000000000000D+00  0.0000000000000D+00
   370  3.6900000000000D+00  0.0000000000000D+00  0.0000000000000D+00
   371  3.7000000000000D+00  0.0000000000000D+00  0.0000000000000D+00
   372  3.7100000000000D+00  0.0000000000000D+00  0.0000000000000D+00
   373  3.7200000000000D+00  0.0000000000000D+00  0.0000000000000D+00
   374  3.7300000000000D+00  0.0000000000000D+00  0.0000000000000D+00
   375  3.7400000000000D+00  0.0000000000000D+00  0.0000000000000D+00
   376  3.7500000000000D+00  0.0000000000000D+00  0.0000000000000D+00
   377  3.7600000000000D+00  0.0000000000000D+00  0.0000000000000D+00
   378  3.7700000000000D+00  0.0000000000000D+00  0.0000000000000D+00
   379  3.7800000000000D+00  0.0000000000000D+00  0.0000000000000D+00
   380  3.7900000000000D+00  0.0000000000000D+00  0.0000000000000D+00
   381  3.8000000000000D+00  0.0000000000000D+00  0.0000000000000D+00
   382  3.8100000000000D+00  0.0000000000000D+00  0.0000000000000D+00
   383  3.8200000000000D+00  0.0000000000000D+00  0.0000000000000D+00
   384  3.8300000000000D+00  0.0000000000000D+00  0.0000000000000D+00
   385  3.8400000000000D+00  0.0000000000000D+00  0.0000000000000D+00
   386  3.8500000000000D+00  0.0000000000000D+00  0.0000000000000D+00
   387  3.8600000000000D+00  0.0000000000000D+00  0.0000000000000D+00
   388  3.8700000000000D+00  0.0000000000000D+00  0.0000000000000D+00
   389  3.8800000000000D+00  0.0000000000000D+00  0.0000000000000D+00
   390  3.8900000000000D+00  0.0000000000000D+00  0.0000000000000D+00
   391  3.9000000000000D+00  0.0000000000000D+00  0.0000000000000D+00
   392  3.9100000000000D+00  0.0000000000000D+00  0.0000000000000D+00
   393  3.9200000000000D+00  0.0000000000000D+00  0.0000000000000D+00
   394  3.9300000000000D+00  0.0000000000000D+00  0.0000000000000D+00
   395  3.9400000000000D+00  0.0000000000000D+00  0.0000000000000D+00
   396  3.9500000000000D+00  0.0000000000000D+00  0.0000000000000D+00
   397  3.9600000000000D+00  0.0000000000000D+00  0.0000000000000D+00
   398  3.9700000000000D+00  0.0000000000000D+00  0.0000000000000D+00
   399  3.9800000000000D+00  0.0000000000000D+00  0.0000000000000D+00
   400  3.9900000000000D+00  0.0000000000000D+00  0.0000000000000D+00
   401  4.0000000000000D+00  0.0000000000000D+00  0.0000000000000D+00
   402  4.0100000000000D+00  0.0000000000000D+00  0.0000000000000D+00
   403  4.0200000000000D+00  0.0000000000000D+00  0.0000000000000D+00
   404  4.0300000000000D+00  0.0000000000000D+00  0.0000000000000D+00
   405  4.0400000000000D+00  0.0000000000000D+00  0.0000000000000D+00
   406  4.0500000000000D+00  0.0000000000000D+00  0.0000000000000D+00
   407  4.0600000000000D+00  0.0000000000000D+00  0.0000000000000D+00
   408  4.0700000000000D+00  0.0000000000000D+00  0.0000000000000D+00
   409  4.0800000000000D+00  0.0000000000000D+00  0.0000000000000D+00
   410  4.0900000000000D+00  0.0000000000000D+00  0.0000000000000D+00
   411  4.1000000000000D+00  0.0000000000000D+00  0.0000000000000D+00
   412  4.1100000000000D+00  0.0000000000000D+00  0.0000000000000D+00
   413  4.1200000000000D+00  0.0000000000000D+00  0.0000000000000D+00
   414  4.1300000000000D+00  0.0000000000000D+00  0.0000000000000D+00
   415  4.1400000000000D+00  0.0000000000000D+00  0.0000000000000D+00
   416  4.1500000000000D+00  0.0000000000000D+00  0.0000000000000D+00
   417  4.1600000000000D+00  0.0000000000000D+00  0.0000000000000D+00
   418  4.1700000000000D+00  0.0000000000000D+00  0.0000000000000D+00
   419  4.1800000000000D+00  0.0000000000000D+00  0.0000000000000D+00
   420  4.1900000000000D+00  0.0000000000000D+00  0.0000000000000D+00
   421  4.2000000000000D+00  0.0000000000000D+00  0.0000000000000D+00
   422  4.2100000000000D+00  0.0000000000000D+00  0.0000000000000D+00