Xe    ONCVPSP-3.3.0  r_core=   1.40310   1.40310   1.40310
     54.0000     26.0000      220117    zatom,zion,pspd
     8      11   2     4   600     0    pspcod,pspxc,lmax,lloc,mmax,r2well
  5.99000000  0.00000000  0.00000000    rchrg fchrg qchrg
     2     2     2     0     0    nproj
     1     1           extension_switch
   0                         1.2045789923022D+01  1.9461570662649D+00
     1  0.0000000000000D+00 -4.5630421663390D-10  9.2674694307515D-10
     2  1.0000000000000D-02  9.7543361140601D-02 -1.2222194766122D-02
     3  2.0000000000000D-02  1.9475202867969D-01 -2.4228063459846D-02
     4  3.0000000000000D-02  2.9129281789541D-01 -3.5802970007368D-02
     5  4.0000000000000D-02  3.8683555131367D-01 -4.6735640607784D-02
     6  5.0000000000000D-02  4.8105453617119D-01 -5.6819800798945D-02
     7  6.0000000000000D-02  5.7363001081442D-01 -6.5855760307546D-02
     8  7.0000000000000D-02  6.6424955022338D-01 -7.3651929383008D-02
     9  8.0000000000000D-02  7.5260942130531D-01 -8.0026251241460D-02
    10  9.0000000000000D-02  8.3841587916218D-01 -8.4807536379770D-02
    11  1.0000000000000D-01  9.2138639618908D-01 -8.7836685843814D-02
    12  1.1000000000000D-01  1.0012508165999D+00 -8.8967792031192D-02
    13  1.2000000000000D-01  1.0777524297915D+00 -8.8069107255044D-02
    14  1.3000000000000D-01  1.1506489568363D+00 -8.5023872068656D-02
    15  1.4000000000000D-01  1.2197134453258D+00 -7.9730997224756D-02
    16  1.5000000000000D-01  1.2847350687588D+00 -7.2105595091730D-02
    17  1.6000000000000D-01  1.3455198276630D+00 -6.2079358342393D-02
    18  1.7000000000000D-01  1.4018911506536D+00 -4.9600785741552D-02
    19  1.8000000000000D-01  1.4536903946342D+00 -3.4635256854925D-02
    20  1.9000000000000D-01  1.5007772443436D+00 -1.7164959456170D-02
    21  2.0000000000000D-01  1.5430300124114D+00  2.8113247096256D-03
    22  2.1000000000000D-01  1.5803458420068D+00  2.5278568366519D-02
    23  2.2000000000000D-01  1.6126408150295D+00  5.0205972259563D-02
    24  2.3000000000000D-01  1.6398499695885D+00  7.7547553224795D-02
    25  2.4000000000000D-01  1.6619272312319D+00  1.0724283486071D-01
    26  2.5000000000000D-01  1.6788452630209D+00  1.3921762775841D-01
    27  2.6000000000000D-01  1.6905952400736D+00  1.7338488533693D-01
    28  2.7000000000000D-01  1.6971865546315D+00  2.0964562065060D-01
    29  2.8000000000000D-01  1.6986464580199D+00  2.4788986909736D-01
    30  2.9000000000000D-01  1.6950196460794D+00  2.8799768176941D-01
    31  3.0000000000000D-01  1.6863677947327D+00  3.2984013425424D-01
    32  3.1000000000000D-01  1.6727690523266D+00  3.7328033601530D-01
    33  3.2000000000000D-01  1.6543174952480D+00  4.1817442605247D-01
    34  3.3000000000000D-01  1.6311225530633D+00  4.6437254135707D-01
    35  3.4000000000000D-01  1.6033084090752D+00  5.1171974571952D-01
    36  3.5000000000000D-01  1.5710133817399D+00  5.6005690770704D-01
    37  3.6000000000000D-01  1.5343892918492D+00  6.0922151808114D-01
    38  3.7000000000000D-01  1.4936008197645D+00  6.5904843854939D-01
    39  3.8000000000000D-01  1.4488248563095D+00  7.0937057551432D-01
    40  3.9000000000000D-01  1.4002498501978D+00  7.6001947436699D-01
    41  4.0000000000000D-01  1.3480751541013D+00  8.1082583183882D-01
    42  4.1000000000000D-01  1.2925103706796D+00  8.6161992594256D-01
    43  4.2000000000000D-01  1.2337746990970D+00  9.1223196506206D-01
    44  4.3000000000000D-01  1.1720962817730D+00  9.6249235975766D-01
    45  4.4000000000000D-01  1.1077115503646D+00  1.0122319228008D+00
    46  4.5000000000000D-01  1.0408645692718D+00  1.0612820048010D+00
    47  4.6000000000000D-01  9.7180637431727D-01  1.1094745745065D+00
    48  4.7000000000000D-01  9.0079430368908D-01  1.1566422544092D+00
    49  4.8000000000000D-01  8.2809131775974D-01  1.2026183236361D+00
    50  4.9000000000000D-01  7.5396530403322D-01  1.2472367012306D+00
    51  5.0000000000000D-01  6.7868836321915D-01  1.2903319237925D+00
    52  5.1000000000000D-01  6.0253607231160D-01  1.3317391320333D+00
    53  5.2000000000000D-01  5.2578672056015D-01  1.3712940810922D+00
    54  5.3000000000000D-01  4.4872051437100D-01  1.4088331894404D+00
    55  5.4000000000000D-01  3.7161874746676D-01  1.4441936408585D+00
    56  5.5000000000000D-01  2.9476293306691D-01  1.4772135533120D+00
    57  5.6000000000000D-01  2.1843389542358D-01  1.5077322275660D+00
    58  5.7000000000000D-01  1.4291081875204D-01  1.5355904870880D+00
    59  5.8000000000000D-01  6.8470252429788D-02  1.5606311191906D+00
    60  5.9000000000000D-01 -4.6149277188503D-03  1.5826994255029D+00
    61  6.0000000000000D-01 -7.6076601181727D-02  1.6016438877240D+00
    62  6.1000000000000D-01 -1.4565252556199D-01  1.6173169522768D+00
    63  6.2000000000000D-01 -2.1308749721754D-01  1.6295759349317D+00
    64  6.3000000000000D-01 -2.7813454528231D-01  1.6382840437977D+00
    65  6.4000000000000D-01 -3.4055615333748D-01  1.6433115162839D+00
    66  6.5000000000000D-01 -4.0012550171831D-01  1.6445368627874D+00
    67  6.6000000000000D-01 -4.5662772218789D-01  1.6418482070145D+00
    68  6.7000000000000D-01 -5.0986115549368D-01  1.6351447100279D+00
    69  6.8000000000000D-01 -5.5963860118091D-01  1.6243380623934D+00
    70  6.9000000000000D-01 -6.0578854799238D-01  1.6093540262333D+00
    71  7.0000000000000D-01 -6.4815637225964D-01  1.5901340066256D+00
    72  7.1000000000000D-01 -6.8660549090508D-01  1.5666366296562D+00
    73  7.2000000000000D-01 -7.2101845505969D-01  1.5388393026107D+00
    74  7.3000000000000D-01 -7.5129796986770D-01  1.5067397302991D+00
    75  7.4000000000000D-01 -7.7736782581835D-01  1.4703573603943D+00
    76  7.5000000000000D-01 -7.9917372692937D-01  1.4297347299651D+00
    77  7.6000000000000D-01 -8.1668400132087D-01  1.3849386851167D+00
    78  7.7000000000000D-01 -8.2989018016638D-01  1.3360614458558D+00
    79  7.8000000000000D-01 -8.3880743169616D-01  1.2832214889628D+00
    80  7.9000000000000D-01 -8.4347483785739D-01  1.2265642228103D+00
    81  8.0000000000000D-01 -8.4395550240124D-01  1.1662624296964D+00
    82  8.1000000000000D-01 -8.4033648056233D-01  1.1025164533648D+00
    83  8.2000000000000D-01 -8.3272852210828D-01  1.0355541119375D+00
    84  8.3000000000000D-01 -8.2126562135163D-01  9.6563031946653D-01
    85  8.4000000000000D-01 -8.0610436971273D-01  8.9302640268603D-01
    86  8.5000000000000D-01 -7.8742310857705D-01  8.1804910326964D-01
    87  8.6000000000000D-01 -7.6542088247784D-01  7.4102925992944D-01
    88  8.7000000000000D-01 -7.4031619502389D-01  6.6232016896755D-01
    89  8.8000000000000D-01 -7.1234557245133D-01  5.8229562635890D-01
    90  8.9000000000000D-01 -6.8176194217213D-01  5.0134765903104D-01
    91  9.0000000000000D-01 -6.4883283618457D-01  4.1988395765012D-01
    92  9.1000000000000D-01 -6.1383843166448D-01  3.3832502784586D-01
    93  9.2000000000000D-01 -5.7706944343244D-01  2.5710108134172D-01
    94  9.3000000000000D-01 -5.3882488525398D-01  1.7664869282400D-01
    95  9.4000000000000D-01 -4.9940971903853D-01  9.7407252512462D-02
    96  9.5000000000000D-01 -4.5913241292376D-01  1.9815248214400D-02
    97  9.6000000000000D-01 -4.1830243093012D-01 -5.5693585914310D-02
    98  9.7000000000000D-01 -3.7722767831406D-01 -1.2869421367748D-01
    99  9.8000000000000D-01 -3.3621192791077D-01 -1.9877429149105D-01
   100  9.9000000000000D-01 -2.9555225361073D-01 -2.6553816869957D-01
   101  1.0000000000000D+00 -2.5553649763325D-01 -3.2861084754217D-01
   102  1.0100000000000D+00 -2.1644079845902D-01 -3.8764185598750D-01
   103  1.0200000000000D+00 -1.7852720609451D-01 -4.4230898661262D-01
   104  1.0300000000000D+00 -1.4204141081244D-01 -4.9232185529221D-01
   105  1.0400000000000D+00 -1.0721061062474D-01 -5.3742523472142D-01
   106  1.0500000000000D+00 -7.4241541445291D-02 -5.7740211981987D-01
   107  1.0600000000000D+00 -4.3318692368250D-02 -6.1207648455476D-01
   108  1.0700000000000D+00 -1.4602726548223D-02 -6.4131569296049D-01
   109  1.0800000000000D+00  1.1770874141325D-02 -6.6503253108474D-01
   110  1.0900000000000D+00  3.5692924905254D-02 -6.8318683076882D-01
   111  1.1000000000000D+00  5.7081401503678D-02 -6.9578666141839D-01
   112  1.1100000000000D+00  7.5882041207653D-02 -7.0288907047208D-01
   113  1.1200000000000D+00  9.2068674599219D-02 -7.0460035962930D-01
   114  1.1300000000000D+00  1.0564328468500D-01 -7.0107588947330D-01
   115  1.1400000000000D+00  1.1663579335521D-01 -6.9251941155351D-01
   116  1.1500000000000D+00  1.2510357824932D-01 -6.7918193247652D-01
   117  1.1600000000000D+00  1.3113072734926D-01 -6.6136012258876D-01
   118  1.1700000000000D+00  1.3482704049691D-01 -6.3939428446268D-01
   119  1.1800000000000D+00  1.3632680720201D-01 -6.1366594104697D-01
   120  1.1900000000000D+00  1.3578718888859D-01 -5.8459463708148D-01
   121  1.2000000000000D+00  1.3338702154763D-01 -5.5263584125790D-01
   122  1.2100000000000D+00  1.2932426571948D-01 -5.1827579856599D-01
   123  1.2200000000000D+00  1.2380988594470D-01 -4.8201808524538D-01
   124  1.2300000000000D+00  1.1706152716241D-01 -4.4437011887390D-01
   125  1.2400000000000D+00  1.0929877350678D-01 -4.0583358866781D-01
   126  1.2500000000000D+00  1.0074144495108D-01 -3.6690214274532D-01
   127  1.2600000000000D+00  9.1606870570018D-02 -3.2805660828579D-01
   128  1.2700000000000D+00  8.2107496752450D-02 -2.8976098209251D-01
   129  1.2800000000000D+00  7.2448510162079D-02 -2.5245840579662D-01
   130  1.2900000000000D+00  6.2825585597605D-02 -2.1656737154121D-01
   131  1.3000000000000D+00  5.3422751537759D-02 -1.8247812692644D-01
   132  1.3100000000000D+00  4.4410395649289D-02 -1.5054931910824D-01
   133  1.3200000000000D+00  3.5943427078502D-02 -1.2110490510931D-01
   134  1.3300000000000D+00  2.8159607236288D-02 -9.4431347567187D-02
   135  1.3400000000000D+00  2.1178062067902D-02 -7.0775117659216D-02
   136  1.3500000000000D+00  1.5097986250162D-02 -5.0340522514707D-02
   137  1.3600000000000D+00  1.0000422829890D-02 -3.3297591356107D-02
   138  1.3700000000000D+00  5.9330225671176D-03 -1.9732074671262D-02
   139  1.3800000000000D+00  2.9170671082033D-03 -9.6716656569361D-03
   140  1.3900000000000D+00  1.0603420836818D-03 -3.4570706287454D-03
   141  1.4000000000000D+00  2.3702728174210D-04 -6.9112568022364D-04
   142  1.4100000000000D+00  4.7479439729903D-06  4.5627345105063D-05
   143  1.4200000000000D+00  1.0700281902852D-07 -5.5382219048339D-07
   144  1.4300000000000D+00  8.7120968137729D-06 -3.8715415177681D-05
   145  1.4400000000000D+00 -5.7560159096163D-07  3.3778033021354D-06
   146  1.4500000000000D+00 -8.0349595965543D-07  4.2107982812029D-06
   147  1.4600000000000D+00 -3.2177021149694D-07  8.2502337876668D-07
   148  1.4700000000000D+00 -9.9183077628512D-08  2.5430681554042D-07
   149  1.4800000000000D+00  0.0000000000000D+00  0.0000000000000D+00
   150  1.4900000000000D+00  0.0000000000000D+00  0.0000000000000D+00
   151  1.5000000000000D+00  0.0000000000000D+00  0.0000000000000D+00
   152  1.5100000000000D+00  0.0000000000000D+00  0.0000000000000D+00
   153  1.5200000000000D+00  0.0000000000000D+00  0.0000000000000D+00
   154  1.5300000000000D+00  0.0000000000000D+00  0.0000000000000D+00
   155  1.5400000000000D+00  0.0000000000000D+00  0.0000000000000D+00
   156  1.5500000000000D+00  0.0000000000000D+00  0.0000000000000D+00
   157  1.5600000000000D+00  0.0000000000000D+00  0.0000000000000D+00
   158  1.5700000000000D+00  0.0000000000000D+00  0.0000000000000D+00
   159  1.5800000000000D+00  0.0000000000000D+00  0.0000000000000D+00
   160  1.5900000000000D+00  0.0000000000000D+00  0.0000000000000D+00
   161  1.6000000000000D+00  0.0000000000000D+00  0.0000000000000D+00
   162  1.6100000000000D+00  0.0000000000000D+00  0.0000000000000D+00
   163  1.6200000000000D+00  0.0000000000000D+00  0.0000000000000D+00
   164  1.6300000000000D+00  0.0000000000000D+00  0.0000000000000D+00
   165  1.6400000000000D+00  0.0000000000000D+00  0.0000000000000D+00
   166  1.6500000000000D+00  0.0000000000000D+00  0.0000000000000D+00
   167  1.6600000000000D+00  0.0000000000000D+00  0.0000000000000D+00
   168  1.6700000000000D+00  0.0000000000000D+00  0.0000000000000D+00
   169  1.6800000000000D+00  0.0000000000000D+00  0.0000000000000D+00
   170  1.6900000000000D+00  0.0000000000000D+00  0.0000000000000D+00
   171  1.7000000000000D+00  0.0000000000000D+00  0.0000000000000D+00
   172  1.7100000000000D+00  0.0000000000000D+00  0.0000000000000D+00
   173  1.7200000000000D+00  0.0000000000000D+00  0.0000000000000D+00
   174  1.7300000000000D+00  0.0000000000000D+00  0.0000000000000D+00
   175  1.7400000000000D+00  0.0000000000000D+00  0.0000000000000D+00
   176  1.7500000000000D+00  0.0000000000000D+00  0.0000000000000D+00
   177  1.7600000000000D+00  0.0000000000000D+00  0.0000000000000D+00
   178  1.7700000000000D+00  0.0000000000000D+00  0.0000000000000D+00
   179  1.7800000000000D+00  0.0000000000000D+00  0.0000000000000D+00
   180  1.7900000000000D+00  0.0000000000000D+00  0.0000000000000D+00
   181  1.8000000000000D+00  0.0000000000000D+00  0.0000000000000D+00
   182  1.8100000000000D+00  0.0000000000000D+00  0.0000000000000D+00
   183  1.8200000000000D+00  0.0000000000000D+00  0.0000000000000D+00
   184  1.8300000000000D+00  0.0000000000000D+00  0.0000000000000D+00
   185  1.8400000000000D+00  0.0000000000000D+00  0.0000000000000D+00
   186  1.8500000000000D+00  0.0000000000000D+00  0.0000000000000D+00
   187  1.8600000000000D+00  0.0000000000000D+00  0.0000000000000D+00
   188  1.8700000000000D+00  0.0000000000000D+00  0.0000000000000D+00
   189  1.8800000000000D+00  0.0000000000000D+00  0.0000000000000D+00
   190  1.8900000000000D+00  0.0000000000000D+00  0.0000000000000D+00
   191  1.9000000000000D+00  0.0000000000000D+00  0.0000000000000D+00
   192  1.9100000000000D+00  0.0000000000000D+00  0.0000000000000D+00
   193  1.9200000000000D+00  0.0000000000000D+00  0.0000000000000D+00
   194  1.9300000000000D+00  0.0000000000000D+00  0.0000000000000D+00
   195  1.9400000000000D+00  0.0000000000000D+00  0.0000000000000D+00
   196  1.9500000000000D+00  0.0000000000000D+00  0.0000000000000D+00
   197  1.9600000000000D+00  0.0000000000000D+00  0.0000000000000D+00
   198  1.9700000000000D+00  0.0000000000000D+00  0.0000000000000D+00
   199  1.9800000000000D+00  0.0000000000000D+00  0.0000000000000D+00
   200  1.9900000000000D+00  0.0000000000000D+00  0.0000000000000D+00
   201  2.0000000000000D+00  0.0000000000000D+00  0.0000000000000D+00
   202  2.0100000000000D+00  0.0000000000000D+00  0.0000000000000D+00
   203  2.0200000000000D+00  0.0000000000000D+00  0.0000000000000D+00
   204  2.0300000000000D+00  0.0000000000000D+00  0.0000000000000D+00
   205  2.0400000000000D+00  0.0000000000000D+00  0.0000000000000D+00
   206  2.0500000000000D+00  0.0000000000000D+00  0.0000000000000D+00
   207  2.0600000000000D+00  0.0000000000000D+00  0.0000000000000D+00
   208  2.0700000000000D+00  0.0000000000000D+00  0.0000000000000D+00
   209  2.0800000000000D+00  0.0000000000000D+00  0.0000000000000D+00
   210  2.0900000000000D+00  0.0000000000000D+00  0.0000000000000D+00
   211  2.1000000000000D+00  0.0000000000000D+00  0.0000000000000D+00
   212  2.1100000000000D+00  0.0000000000000D+00  0.0000000000000D+00
   213  2.1200000000000D+00  0.0000000000000D+00  0.0000000000000D+00
   214  2.1300000000000D+00  0.0000000000000D+00  0.0000000000000D+00
   215  2.1400000000000D+00  0.0000000000000D+00  0.0000000000000D+00
   216  2.1500000000000D+00  0.0000000000000D+00  0.0000000000000D+00
   217  2.1600000000000D+00  0.0000000000000D+00  0.0000000000000D+00
   218  2.1700000000000D+00  0.0000000000000D+00  0.0000000000000D+00
   219  2.1800000000000D+00  0.0000000000000D+00  0.0000000000000D+00
   220  2.1900000000000D+00  0.0000000000000D+00  0.0000000000000D+00
   221  2.2000000000000D+00  0.0000000000000D+00  0.0000000000000D+00
   222  2.2100000000000D+00  0.0000000000000D+00  0.0000000000000D+00
   223  2.2200000000000D+00  0.0000000000000D+00  0.0000000000000D+00
   224  2.2300000000000D+00  0.0000000000000D+00  0.0000000000000D+00
   225  2.2400000000000D+00  0.0000000000000D+00  0.0000000000000D+00
   226  2.2500000000000D+00  0.0000000000000D+00  0.0000000000000D+00
   227  2.2600000000000D+00  0.0000000000000D+00  0.0000000000000D+00
   228  2.2700000000000D+00  0.0000000000000D+00  0.0000000000000D+00
   229  2.2800000000000D+00  0.0000000000000D+00  0.0000000000000D+00
   230  2.2900000000000D+00  0.0000000000000D+00  0.0000000000000D+00
   231  2.3000000000000D+00  0.0000000000000D+00  0.0000000000000D+00
   232  2.3100000000000D+00  0.0000000000000D+00  0.0000000000000D+00
   233  2.3200000000000D+00  0.0000000000000D+00  0.0000000000000D+00
   234  2.3300000000000D+00  0.0000000000000D+00  0.0000000000000D+00
   235  2.3400000000000D+00  0.0000000000000D+00  0.0000000000000D+00
   236  2.3500000000000D+00  0.0000000000000D+00  0.0000000000000D+00
   237  2.3600000000000D+00  0.0000000000000D+00  0.0000000000000D+00
   238  2.3700000000000D+00  0.0000000000000D+00  0.0000000000000D+00
   239  2.3800000000000D+00  0.0000000000000D+00  0.0000000000000D+00
   240  2.3900000000000D+00  0.0000000000000D+00  0.0000000000000D+00
   241  2.4000000000000D+00  0.0000000000000D+00  0.0000000000000D+00
   242  2.4100000000000D+00  0.0000000000000D+00  0.0000000000000D+00
   243  2.4200000000000D+00  0.0000000000000D+00  0.0000000000000D+00
   244  2.4300000000000D+00  0.0000000000000D+00  0.0000000000000D+00
   245  2.4400000000000D+00  0.0000000000000D+00  0.0000000000000D+00
   246  2.4500000000000D+00  0.0000000000000D+00  0.0000000000000D+00
   247  2.4600000000000D+00  0.0000000000000D+00  0.0000000000000D+00
   248  2.4700000000000D+00  0.0000000000000D+00  0.0000000000000D+00
   249  2.4800000000000D+00  0.0000000000000D+00  0.0000000000000D+00
   250  2.4900000000000D+00  0.0000000000000D+00  0.0000000000000D+00
   251  2.5000000000000D+00  0.0000000000000D+00  0.0000000000000D+00
   252  2.5100000000000D+00  0.0000000000000D+00  0.0000000000000D+00
   253  2.5200000000000D+00  0.0000000000000D+00  0.0000000000000D+00
   254  2.5300000000000D+00  0.0000000000000D+00  0.0000000000000D+00
   255  2.5400000000000D+00  0.0000000000000D+00  0.0000000000000D+00
   256  2.5500000000000D+00  0.0000000000000D+00  0.0000000000000D+00
   257  2.5600000000000D+00  0.0000000000000D+00  0.0000000000000D+00
   258  2.5700000000000D+00  0.0000000000000D+00  0.0000000000000D+00
   259  2.5800000000000D+00  0.0000000000000D+00  0.0000000000000D+00
   260  2.5900000000000D+00  0.0000000000000D+00  0.0000000000000D+00
   261  2.6000000000000D+00  0.0000000000000D+00  0.0000000000000D+00
   262  2.6100000000000D+00  0.0000000000000D+00  0.0000000000000D+00
   263  2.6200000000000D+00  0.0000000000000D+00  0.0000000000000D+00
   264  2.6300000000000D+00  0.0000000000000D+00  0.0000000000000D+00
   265  2.6400000000000D+00  0.0000000000000D+00  0.0000000000000D+00
   266  2.6500000000000D+00  0.0000000000000D+00  0.0000000000000D+00
   267  2.6600000000000D+00  0.0000000000000D+00  0.0000000000000D+00
   268  2.6700000000000D+00  0.0000000000000D+00  0.0000000000000D+00
   269  2.6800000000000D+00  0.0000000000000D+00  0.0000000000000D+00
   270  2.6900000000000D+00  0.0000000000000D+00  0.0000000000000D+00
   271  2.7000000000000D+00  0.0000000000000D+00  0.0000000000000D+00
   272  2.7100000000000D+00  0.0000000000000D+00  0.0000000000000D+00
   273  2.7200000000000D+00  0.0000000000000D+00  0.0000000000000D+00
   274  2.7300000000000D+00  0.0000000000000D+00  0.0000000000000D+00
   275  2.7400000000000D+00  0.0000000000000D+00  0.0000000000000D+00
   276  2.7500000000000D+00  0.0000000000000D+00  0.0000000000000D+00
   277  2.7600000000000D+00  0.0000000000000D+00  0.0000000000000D+00
   278  2.7700000000000D+00  0.0000000000000D+00  0.0000000000000D+00
   279  2.7800000000000D+00  0.0000000000000D+00  0.0000000000000D+00
   280  2.7900000000000D+00  0.0000000000000D+00  0.0000000000000D+00
   281  2.8000000000000D+00  0.0000000000000D+00  0.0000000000000D+00
   282  2.8100000000000D+00  0.0000000000000D+00  0.0000000000000D+00
   283  2.8200000000000D+00  0.0000000000000D+00  0.0000000000000D+00
   284  2.8300000000000D+00  0.0000000000000D+00  0.0000000000000D+00
   285  2.8400000000000D+00  0.0000000000000D+00  0.0000000000000D+00
   286  2.8500000000000D+00  0.0000000000000D+00  0.0000000000000D+00
   287  2.8600000000000D+00  0.0000000000000D+00  0.0000000000000D+00
   288  2.8700000000000D+00  0.0000000000000D+00  0.0000000000000D+00
   289  2.8800000000000D+00  0.0000000000000D+00  0.0000000000000D+00
   290  2.8900000000000D+00  0.0000000000000D+00  0.0000000000000D+00
   291  2.9000000000000D+00  0.0000000000000D+00  0.0000000000000D+00
   292  2.9100000000000D+00  0.0000000000000D+00  0.0000000000000D+00
   293  2.9200000000000D+00  0.0000000000000D+00  0.0000000000000D+00
   294  2.9300000000000D+00  0.0000000000000D+00  0.0000000000000D+00
   295  2.9400000000000D+00  0.0000000000000D+00  0.0000000000000D+00
   296  2.9500000000000D+00  0.0000000000000D+00  0.0000000000000D+00
   297  2.9600000000000D+00  0.0000000000000D+00  0.0000000000000D+00
   298  2.9700000000000D+00  0.0000000000000D+00  0.0000000000000D+00
   299  2.9800000000000D+00  0.0000000000000D+00  0.0000000000000D+00
   300  2.9900000000000D+00  0.0000000000000D+00  0.0000000000000D+00
   301  3.0000000000000D+00  0.0000000000000D+00  0.0000000000000D+00
   302  3.0100000000000D+00  0.0000000000000D+00  0.0000000000000D+00
   303  3.0200000000000D+00  0.0000000000000D+00  0.0000000000000D+00
   304  3.0300000000000D+00  0.0000000000000D+00  0.0000000000000D+00
   305  3.0400000000000D+00  0.0000000000000D+00  0.0000000000000D+00
   306  3.0500000000000D+00  0.0000000000000D+00  0.0000000000000D+00
   307  3.0600000000000D+00  0.0000000000000D+00  0.0000000000000D+00
   308  3.0700000000000D+00  0.0000000000000D+00  0.0000000000000D+00
   309  3.0800000000000D+00  0.0000000000000D+00  0.0000000000000D+00
   310  3.0900000000000D+00  0.0000000000000D+00  0.0000000000000D+00
   311  3.1000000000000D+00  0.0000000000000D+00  0.0000000000000D+00
   312  3.1100000000000D+00  0.0000000000000D+00  0.0000000000000D+00
   313  3.1200000000000D+00  0.0000000000000D+00  0.0000000000000D+00
   314  3.1300000000000D+00  0.0000000000000D+00  0.0000000000000D+00
   315  3.1400000000000D+00  0.0000000000000D+00  0.0000000000000D+00
   316  3.1500000000000D+00  0.0000000000000D+00  0.0000000000000D+00
   317  3.1600000000000D+00  0.0000000000000D+00  0.0000000000000D+00
   318  3.1700000000000D+00  0.0000000000000D+00  0.0000000000000D+00
   319  3.1800000000000D+00  0.0000000000000D+00  0.0000000000000D+00
   320  3.1900000000000D+00  0.0000000000000D+00  0.0000000000000D+00
   321  3.2000000000000D+00  0.0000000000000D+00  0.0000000000000D+00
   322  3.2100000000000D+00  0.0000000000000D+00  0.0000000000000D+00
   323  3.2200000000000D+00  0.0000000000000D+00  0.0000000000000D+00
   324  3.2300000000000D+00  0.0000000000000D+00  0.0000000000000D+00
   325  3.2400000000000D+00  0.0000000000000D+00  0.0000000000000D+00
   326  3.2500000000000D+00  0.0000000000000D+00  0.0000000000000D+00
   327  3.2600000000000D+00  0.0000000000000D+00  0.0000000000000D+00
   328  3.2700000000000D+00  0.0000000000000D+00  0.0000000000000D+00
   329  3.2800000000000D+00  0.0000000000000D+00  0.0000000000000D+00
   330  3.2900000000000D+00  0.0000000000000D+00  0.0000000000000D+00
   331  3.3000000000000D+00  0.0000000000000D+00  0.0000000000000D+00
   332  3.3100000000000D+00  0.0000000000000D+00  0.0000000000000D+00
   333  3.3200000000000D+00  0.0000000000000D+00  0.0000000000000D+00
   334  3.3300000000000D+00  0.0000000000000D+00  0.0000000000000D+00
   335  3.3400000000000D+00  0.0000000000000D+00  0.0000000000000D+00
   336  3.3500000000000D+00  0.0000000000000D+00  0.0000000000000D+00
   337  3.3600000000000D+00  0.0000000000000D+00  0.0000000000000D+00
   338  3.3700000000000D+00  0.0000000000000D+00  0.0000000000000D+00
   339  3.3800000000000D+00  0.0000000000000D+00  0.0000000000000D+00
   340  3.3900000000000D+00  0.0000000000000D+00  0.0000000000000D+00
   341  3.4000000000000D+00  0.0000000000000D+00  0.0000000000000D+00
   342  3.4100000000000D+00  0.0000000000000D+00  0.0000000000000D+00
   343  3.4200000000000D+00  0.0000000000000D+00  0.0000000000000D+00
   344  3.4300000000000D+00  0.0000000000000D+00  0.0000000000000D+00
   345  3.4400000000000D+00  0.0000000000000D+00  0.0000000000000D+00
   346  3.4500000000000D+00  0.0000000000000D+00  0.0000000000000D+00
   347  3.4600000000000D+00  0.0000000000000D+00  0.0000000000000D+00
   348  3.4700000000000D+00  0.0000000000000D+00  0.0000000000000D+00
   349  3.4800000000000D+00  0.0000000000000D+00  0.0000000000000D+00
   350  3.4900000000000D+00  0.0000000000000D+00  0.0000000000000D+00
   351  3.5000000000000D+00  0.0000000000000D+00  0.0000000000000D+00
   352  3.5100000000000D+00  0.0000000000000D+00  0.0000000000000D+00
   353  3.5200000000000D+00  0.0000000000000D+00  0.0000000000000D+00
   354  3.5300000000000D+00  0.0000000000000D+00  0.0000000000000D+00
   355  3.5400000000000D+00  0.0000000000000D+00  0.0000000000000D+00
   356  3.5500000000000D+00  0.0000000000000D+00  0.0000000000000D+00
   357  3.5600000000000D+00  0.0000000000000D+00  0.0000000000000D+00
   358  3.5700000000000D+00  0.0000000000000D+00  0.0000000000000D+00
   359  3.5800000000000D+00  0.0000000000000D+00  0.0000000000000D+00
   360  3.5900000000000D+00  0.0000000000000D+00  0.0000000000000D+00
   361  3.6000000000000D+00  0.0000000000000D+00  0.0000000000000D+00
   362  3.6100000000000D+00  0.0000000000000D+00  0.0000000000000D+00
   363  3.6200000000000D+00  0.0000000000000D+00  0.0000000000000D+00
   364  3.6300000000000D+00  0.0000000000000D+00  0.0000000000000D+00
   365  3.6400000000000D+00  0.0000000000000D+00  0.0000000000000D+00
   366  3.6500000000000D+00  0.0000000000000D+00  0.0000000000000D+00
   367  3.6600000000000D+00  0.0000000000000D+00  0.0000000000000D+00
   368  3.6700000000000D+00  0.0000000000000D+00  0.0000000000000D+00
   369  3.6800000000000D+00  0.0000000000000D+00  0.0000000000000D+00
   370  3.6900000000000D+00  0.0000000000000D+00  0.0000000000000D+00
   371  3.7000000000000D+00  0.0000000000000D+00  0.0000000000000D+00
   372  3.7100000000000D+00  0.0000000000000D+00  0.0000000000000D+00
   373  3.7200000000000D+00  0.0000000000000D+00  0.0000000000000D+00
   374  3.7300000000000D+00  0.0000000000000D+00  0.0000000000000D+00
   375  3.7400000000000D+00  0.0000000000000D+00  0.0000000000000D+00
   376  3.7500000000000D+00  0.0000000000000D+00  0.0000000000000D+00
   377  3.7600000000000D+00  0.0000000000000D+00  0.0000000000000D+00
   378  3.7700000000000D+00  0.0000000000000D+00  0.0000000000000D+00
   379  3.7800000000000D+00  0.0000000000000D+00  0.0000000000000D+00
   380  3.7900000000000D+00  0.0000000000000D+00  0.0000000000000D+00
   381  3.8000000000000D+00  0.0000000000000D+00  0.0000000000000D+00
   382  3.8100000000000D+00  0.0000000000000D+00  0.0000000000000D+00
   383  3.8200000000000D+00  0.0000000000000D+00  0.0000000000000D+00
   384  3.8300000000000D+00  0.0000000000000D+00  0.0000000000000D+00
   385  3.8400000000000D+00  0.0000000000000D+00  0.0000000000000D+00
   386  3.8500000000000D+00  0.0000000000000D+00  0.0000000000000D+00
   387  3.8600000000000D+00  0.0000000000000D+00  0.0000000000000D+00
   388  3.8700000000000D+00  0.0000000000000D+00  0.0000000000000D+00
   389  3.8800000000000D+00  0.0000000000000D+00  0.0000000000000D+00
   390  3.8900000000000D+00  0.0000000000000D+00  0.0000000000000D+00
   391  3.9000000000000D+00  0.0000000000000D+00  0.0000000000000D+00
   392  3.9100000000000D+00  0.0000000000000D+00  0.0000000000000D+00
   393  3.9200000000000D+00  0.0000000000000D+00  0.0000000000000D+00
   394  3.9300000000000D+00  0.0000000000000D+00  0.0000000000000D+00
   395  3.9400000000000D+00  0.0000000000000D+00  0.0000000000000D+00
   396  3.9500000000000D+00  0.0000000000000D+00  0.0000000000000D+00
   397  3.9600000000000D+00  0.0000000000000D+00  0.0000000000000D+00
   398  3.9700000000000D+00  0.0000000000000D+00  0.0000000000000D+00
   399  3.9800000000000D+00  0.0000000000000D+00  0.0000000000000D+00
   400  3.9900000000000D+00  0.0000000000000D+00  0.0000000000000D+00
   401  4.0000000000000D+00  0.0000000000000D+00  0.0000000000000D+00
   402  4.0100000000000D+00  0.0000000000000D+00  0.0000000000000D+00
   403  4.0200000000000D+00  0.0000000000000D+00  0.0000000000000D+00
   404  4.0300000000000D+00  0.0000000000000D+00  0.0000000000000D+00
   405  4.0400000000000D+00  0.0000000000000D+00  0.0000000000000D+00
   406  4.0500000000000D+00  0.0000000000000D+00  0.0000000000000D+00
   407  4.0600000000000D+00  0.0000000000000D+00  0.0000000000000D+00
   408  4.0700000000000D+00  0.0000000000000D+00  0.0000000000000D+00
   409  4.0800000000000D+00  0.0000000000000D+00  0.0000000000000D+00
   410  4.0900000000000D+00  0.0000000000000D+00  0.0000000000000D+00
   411  4.1000000000000D+00  0.0000000000000D+00  0.0000000000000D+00
   412  4.1100000000000D+00  0.0000000000000D+00  0.0000000000000D+00
   413  4.1200000000000D+00  0.0000000000000D+00  0.0000000000000D+00
   414  4.1300000000000D+00  0.0000000000000D+00  0.0000000000000D+00
   415  4.1400000000000D+00  0.0000000000000D+00  0.0000000000000D+00
   416  4.1500000000000D+00  0.0000000000000D+00  0.0000000000000D+00
   417  4.1600000000000D+00  0.0000000000000D+00  0.0000000000000D+00
   418  4.1700000000000D+00  0.0000000000000D+00  0.0000000000000D+00
   419  4.1800000000000D+00  0.0000000000000D+00  0.0000000000000D+00
   420  4.1900000000000D+00  0.0000000000000D+00  0.0000000000000D+00
   421  4.2000000000000D+00  0.0000000000000D+00  0.0000000000000D+00
   422  4.2100000000000D+00  0.0000000000000D+00  0.0000000000000D+00