Xe    ONCVPSP-3.3.0  r_core=   2.00680   1.80252   2.20774
     54.0000      8.0000      220117    zatom,zion,pspd
     8      11   2     4   600     0    pspcod,pspxc,lmax,lloc,mmax,r2well
  5.99000000  0.00000000  0.00000000    rchrg fchrg qchrg
     2     2     2     0     0    nproj
     1     1           extension_switch
   0                         8.3988379406261D+00  1.4908853280612D+00
     1  0.0000000000000D+00  1.7496330773081D-11 -4.3936826399360D-11
     2  1.0000000000000D-02  7.0967180940688D-03  3.0157051951935D-02
     3  2.0000000000000D-02  1.4260783648043D-02  6.0167242785549D-02
     4  3.0000000000000D-02  2.1559220977556D-02  8.9884397172207D-02
     5  4.0000000000000D-02  2.9058409377878D-02  1.1916370845552D-01
     6  5.0000000000000D-02  3.6823763779790D-02  1.4786241573072D-01
     7  6.0000000000000D-02  4.4919419192431D-02  1.7584047224680D-01
     8  7.0000000000000D-02  5.3407920174968D-02  2.0296120229060D-01
     9  8.0000000000000D-02  6.2349916561481D-02  2.2909194375567D-01
    10  9.0000000000000D-02  7.1803866641662D-02  2.5410467365353D-01
    11  1.0000000000000D-01  8.1825748973967D-02  2.7787661389023D-01
    12  1.1000000000000D-01  9.2468783977651D-02  3.0029081470649D-01
    13  1.2000000000000D-01  1.0378316641589D-01  3.2123671326562D-01
    14  1.3000000000000D-01  1.1581580984394D-01  3.4061066496901D-01
    15  1.4000000000000D-01  1.2861010405400D-01  3.5831644518421D-01
    16  1.5000000000000D-01  1.4220568650278D-01  3.7426571918517D-01
    17  1.6000000000000D-01  1.5663822865771D-01  3.8837847822763D-01
    18  1.7000000000000D-01  1.7193923814491D-01  4.0058343981473D-01
    19  1.8000000000000D-01  1.8813587752542D-01  4.1081841034804D-01
    20  1.9000000000000D-01  2.0525080046611D-01  4.1903060850694D-01
    21  2.0000000000000D-01  2.2330200600922D-01  4.2517694785437D-01
    22  2.1000000000000D-01  2.4230271157844D-01  4.2922427732890D-01
    23  2.2000000000000D-01  2.6226124529110D-01  4.3114957845049D-01
    24  2.3000000000000D-01  2.8318095807492D-01  4.3094011824139D-01
    25  2.4000000000000D-01  3.0506015601496D-01  4.2859355704174D-01
    26  2.5000000000000D-01  3.2789205328051D-01  4.2411801058251D-01
    27  2.6000000000000D-01  3.5166474590510D-01  4.1753206586508D-01
    28  2.7000000000000D-01  3.7636120661389D-01  4.0886475058653D-01
    29  2.8000000000000D-01  4.0195930081265D-01  3.9815545604192D-01
    30  2.9000000000000D-01  4.2843182377167D-01  3.8545381362848D-01
    31  3.0000000000000D-01  4.5574655895602D-01  3.7081952527196D-01
    32  3.1000000000000D-01  4.8386635737137D-01  3.5432214828989D-01
    33  3.2000000000000D-01  5.1274923771193D-01  3.3604083540140D-01
    34  3.3000000000000D-01  5.4234850701482D-01  3.1606403078655D-01
    35  3.4000000000000D-01  5.7261290144324D-01  2.9448912328894D-01
    36  3.5000000000000D-01  6.0348674673920D-01  2.7142205804413D-01
    37  3.6000000000000D-01  6.3491013780691D-01  2.4697690800075D-01
    38  3.7000000000000D-01  6.6681913680841D-01  2.2127540698151D-01
    39  3.8000000000000D-01  6.9914598907626D-01  1.9444644610655D-01
    40  3.9000000000000D-01  7.3181935607272D-01  1.6662553557012D-01
    41  4.0000000000000D-01  7.6476456455180D-01  1.3795423392434D-01
    42  4.1000000000000D-01  7.9790387101053D-01  1.0857954717809D-01
    43  4.2000000000000D-01  8.3115674044826D-01  7.8653300165687D-02
    44  4.3000000000000D-01  8.6444013838860D-01  4.8331482777351D-02
    45  4.4000000000000D-01  8.9766883505841D-01  1.7773573771125D-02
    46  4.5000000000000D-01  9.3075572056119D-01 -1.2858154996722D-02
    47  4.6000000000000D-01  9.6361212982978D-01 -4.3399350979514D-02
    48  4.7000000000000D-01  9.9614817609523D-01 -7.3684306948416D-02
    49  4.8000000000000D-01  1.0282730915650D+00 -1.0354669748066D-01
    50  4.9000000000000D-01  1.0598955739653D+00 -1.3282032273784D-01
    51  5.0000000000000D-01  1.0909241375690D+00 -1.6133985628785D-01
    52  5.1000000000000D-01  1.1212674673017D+00 -1.8894159368104D-01
    53  5.2000000000000D-01  1.1508347744980D+00 -2.1546419846290D-01
    54  5.3000000000000D-01  1.1795361528606D+00 -2.4074944229061D-01
    55  5.4000000000000D-01  1.2072829331665D+00 -2.6464293582139D-01
    56  5.5000000000000D-01  1.2339880352582D+00 -2.8699484705574D-01
    57  5.6000000000000D-01  1.2595663158596D+00 -3.0766060384846D-01
    58  5.7000000000000D-01  1.2839349107642D+00 -3.2650157734549D-01
    59  5.8000000000000D-01  1.3070135699557D+00 -3.4338574316524D-01
    60  5.9000000000000D-01  1.3287249842436D+00 -3.5818831721756D-01
    61  6.0000000000000D-01  1.3489951020196D+00 -3.7079236314421D-01
    62  6.1000000000000D-01  1.3677534347763D+00 -3.8108936846889D-01
    63  6.2000000000000D-01  1.3849333500661D+00 -3.8897978666434D-01
    64  6.3000000000000D-01  1.4004723506250D+00 -3.9437354247689D-01
    65  6.4000000000000D-01  1.4143123384355D+00 -3.9719049799558D-01
    66  6.5000000000000D-01  1.4263998625606D+00 -3.9736087711274D-01
    67  6.6000000000000D-01  1.4366863496421D+00 -3.9482564619526D-01
    68  6.7000000000000D-01  1.4451283160265D+00 -3.8953684896966D-01
    69  6.8000000000000D-01  1.4516875605513D+00 -3.8145789381959D-01
    70  6.9000000000000D-01  1.4563313371068D+00 -3.7056379190024D-01
    71  7.0000000000000D-01  1.4590325061666D+00 -3.5684134468834D-01
    72  7.1000000000000D-01  1.4597696645702D+00 -3.4028927981137D-01
    73  7.2000000000000D-01  1.4585272529312D+00 -3.2091833423011D-01
    74  7.3000000000000D-01  1.4552956401372D+00 -2.9875128408729D-01
    75  7.4000000000000D-01  1.4500711845073D+00 -2.7382292077796D-01
    76  7.5000000000000D-01  1.4428562712722D+00 -2.4617997304547D-01
    77  7.6000000000000D-01  1.4336593261445D+00 -2.1588097515846D-01
    78  7.7000000000000D-01  1.4224948048511D+00 -1.8299608147710D-01
    79  7.8000000000000D-01  1.4093831586060D+00 -1.4760682797109D-01
    80  7.9000000000000D-01  1.3943507756071D+00 -1.0980584150582D-01
    81  8.0000000000000D-01  1.3774298987491D+00 -6.9696497964949D-02
    82  8.1000000000000D-01  1.3586585198494D+00 -2.7392530527077D-02
    83  8.2000000000000D-01  1.3380802507916D+00  1.6982410341145D-02
    84  8.3000000000000D-01  1.3157441720956D+00  6.3295243373281D-02
    85  8.4000000000000D-01  1.2917046595252D+00  1.1140398743820D-01
    86  8.5000000000000D-01  1.2660211894470D+00  1.6115833466228D-01
    87  8.6000000000000D-01  1.2387581237509D+00  2.1240026326385D-01
    88  8.7000000000000D-01  1.2099844752375D+00  2.6496468741939D-01
    89  8.8000000000000D-01  1.1797736544696D+00  3.1868014128783D-01
    90  8.9000000000000D-01  1.1482031991709D+00  3.7336949413787D-01
    91  9.0000000000000D-01  1.1153544873376D+00  4.2885069335631D-01
    92  9.1000000000000D-01  1.0813124353043D+00  4.8493753196259D-01
    93  9.2000000000000D-01  1.0461651820790D+00  5.4144043711789D-01
    94  9.3000000000000D-01  1.0100037613258D+00  5.9816727599659D-01
    95  9.4000000000000D-01  9.7292176243252D-01  6.5492417528477D-01
    96  9.5000000000000D-01  9.3501498215366D-01  7.1151635048513D-01
    97  9.6000000000000D-01  8.9638106836432D-01  7.6774894114108D-01
    98  9.7000000000000D-01  8.5711915749769D-01  8.2342784804519D-01
    99  9.8000000000000D-01  8.1732950727000D-01  8.7836056846885D-01
   100  9.9000000000000D-01  7.7711312631890D-01  9.3235702544268D-01
   101  1.0000000000000D+00  7.3657140239622D-01  9.8523038712797D-01
   102  1.0100000000000D+00  6.9580573076285D-01  1.0367978723516D+00
   103  1.0200000000000D+00  6.5491714443192D-01  1.0868815384301D+00
   104  1.0300000000000D+00  6.1400594789700D-01  1.1353090474787D+00
   105  1.0400000000000D+00  5.7317135596465D-01  1.1819144074958D+00
   106  1.0500000000000D+00  5.3251113928398D-01  1.2265386846243D+00
   107  1.0600000000000D+00  4.9212127813344D-01  1.2690306831197D+00
   108  1.0700000000000D+00  4.5209562598347D-01  1.3092475897042D+00
   109  1.0800000000000D+00  4.1252558430310D-01  1.3470555791581D+00
   110  1.0900000000000D+00  3.7349979002393D-01  1.3823303781754D+00
   111  1.1000000000000D+00  3.3510381700638D-01  1.4149577847282D+00
   112  1.1100000000000D+00  2.9741989279195D-01  1.4448341403698D+00
   113  1.1200000000000D+00  2.6052663183881D-01  1.4718667531649D+00
   114  1.1300000000000D+00  2.2449878635956D-01  1.4959742691657D+00
   115  1.1400000000000D+00  1.8940701578500D-01  1.5170869906217D+00
   116  1.1500000000000D+00  1.5531767579523D-01  1.5351471393472D+00
   117  1.1600000000000D+00  1.2229262775315D-01  1.5501090639641D+00
   118  1.1700000000000D+00  9.0389069270457D-02  1.5619393900266D+00
   119  1.1800000000000D+00  5.9659386521755D-02  1.5706171123423D+00
   120  1.1900000000000D+00  3.0151028846749D-02  1.5761336290076D+00
   121  1.2000000000000D+00  1.9064060266952D-03  1.5784927170821D+00
   122  1.2100000000000D+00 -2.5037191477451D-02  1.5777104500846D+00
   123  1.2200000000000D+00 -5.0647649148875D-02  1.5738150577768D+00
   124  1.2300000000000D+00 -7.4898061825795D-02  1.5668467289653D+00
   125  1.2400000000000D+00 -9.7766743983123D-02  1.5568573584500D+00
   126  1.2500000000000D+00 -1.1923721706551D-01  1.5439102394863D+00
   127  1.2600000000000D+00 -1.3929817411312D-01  1.5280797032831D+00
   128  1.2700000000000D+00 -1.5794342213054D-01  1.5094507075669D+00
   129  1.2800000000000D+00 -1.7517180271545D-01  1.4881183763946D+00
   130  1.2900000000000D+00 -1.9098709150158D-01  1.4641874934964D+00
   131  1.3000000000000D+00 -2.0539787720675D-01  1.4377719519782D+00
   132  1.3100000000000D+00 -2.1841742109704D-01  1.4089941632523D+00
   133  1.3200000000000D+00 -2.3006349772409D-01  1.3779844281767D+00
   134  1.3300000000000D+00 -2.4035821801804D-01  1.3448802738799D+00
   135  1.3400000000000D+00 -2.4932783578497D-01  1.3098257596593D+00
   136  1.3500000000000D+00 -2.5700253874889D-01  1.2729707555538D+00
   137  1.3600000000000D+00 -2.6341622543858D-01  1.2344701974924D+00
   138  1.3700000000000D+00 -2.6860626914976D-01  1.1944833227833D+00
   139  1.3800000000000D+00 -2.7261327036658D-01  1.1531728900144D+00
   140  1.3900000000000D+00 -2.7548079906326D-01  1.1107043874300D+00
   141  1.4000000000000D+00 -2.7725512826707D-01  1.0672452338564D+00
   142  1.4100000000000D+00 -2.7798496042239D-01  1.0229639763975D+00
   143  1.4200000000000D+00 -2.7772114800005D-01  9.7802948898599D-01
   144  1.4300000000000D+00 -2.7651640989550D-01  9.3261017604371D-01
   145  1.4400000000000D+00 -2.7442504510341D-01  8.8687318517629D-01
   146  1.4500000000000D+00 -2.7150264521717D-01  8.4098363320469D-01
   147  1.4600000000000D+00 -2.6780580722263D-01  7.9510384923672D-01
   148  1.4700000000000D+00 -2.6339184808709D-01  7.4939263879813D-01
   149  1.4800000000000D+00 -2.5831852262560D-01  7.0400457278885D-01
   150  1.4900000000000D+00 -2.5264374597551D-01  6.5908930455063D-01
   151  1.5000000000000D+00 -2.4642532222937D-01  6.1479091906339D-01
   152  1.5100000000000D+00 -2.3972068030243D-01  5.7124731662880D-01
   153  1.5200000000000D+00 -2.3258661860563D-01  5.2858963510716D-01
   154  1.5300000000000D+00 -2.2507905943134D-01  4.8694171250452D-01
   155  1.5400000000000D+00 -2.1725281441872D-01  4.4641959327458D-01
   156  1.5500000000000D+00 -2.0916136202650D-01  4.0713108021598D-01
   157  1.5600000000000D+00 -2.0085663798209D-01  3.6917533404584D-01
   158  1.5700000000000D+00 -1.9238883974793D-01  3.3264252288555D-01
   159  1.5800000000000D+00 -1.8380624547662D-01  2.9761352221107D-01
   160  1.5900000000000D+00 -1.7515504864970D-01  2.6415966795409D-01
   161  1.6000000000000D+00 -1.6647920832042D-01  2.3234256167347D-01
   162  1.6100000000000D+00 -1.5782031630962D-01  2.0221393090747D-01
   163  1.6200000000000D+00 -1.4921748073881D-01  1.7381554208788D-01
   164  1.6300000000000D+00 -1.4070722730854D-01  1.4717916925331D-01
   165  1.6400000000000D+00 -1.3232341733435D-01  1.2232661491676D-01
   166  1.6500000000000D+00 -1.2409718377608D-01  9.9269785781654D-02
   167  1.6600000000000D+00 -1.1605688410624D-01  7.8010819241900D-02
   168  1.6700000000000D+00 -1.0822807097120D-01  5.8542262514790D-02
   169  1.6800000000000D+00 -1.0063347935296D-01  4.0847300010915D-02
   170  1.6900000000000D+00 -9.3293030929961D-02  2.4900030033386D-02
   171  1.7000000000000D+00 -8.6223854184104D-02  1.0665786026006D-02
   172  1.7100000000000D+00 -7.9440320747033D-02 -1.8984971496779D-03
   173  1.7200000000000D+00 -7.2954096348263D-02 -1.2843877120005D-02
   174  1.7300000000000D+00 -6.6774206705318D-02 -2.2228958081240D-02
   175  1.7400000000000D+00 -6.0907116422872D-02 -3.0119411035911D-02
   176  1.7500000000000D+00 -5.5356820960096D-02 -3.6587461122892D-02
   177  1.7600000000000D+00 -5.0124953673025D-02 -4.1711334544278D-02
   178  1.7700000000000D+00 -4.5210887353561D-02 -4.5574734468624D-02
   179  1.7800000000000D+00 -4.0611894953790D-02 -4.8266133555148D-02
   180  1.7900000000000D+00 -3.6323250882015D-02 -4.9878265794599D-02
   181  1.8000000000000D+00 -3.2338307944861D-02 -5.0507725014386D-02
   182  1.8100000000000D+00 -2.8648800564520D-02 -5.0253807198879D-02
   183  1.8200000000000D+00 -2.5245115312247D-02 -4.9217463336920D-02
   184  1.8300000000000D+00 -2.2116567855804D-02 -4.7500294909217D-02
   185  1.8400000000000D+00 -1.9251742927914D-02 -4.5203355536717D-02
   186  1.8500000000000D+00 -1.6638714563175D-02 -4.2426363557215D-02
   187  1.8600000000000D+00 -1.4265181022037D-02 -3.9267219063558D-02
   188  1.8700000000000D+00 -1.2118637745103D-02 -3.5821398684221D-02
   189  1.8800000000000D+00 -1.0186573342054D-02 -3.2181265755887D-02
   190  1.8900000000000D+00 -8.4566276004699D-03 -2.8435520292906D-02
   191  1.9000000000000D+00 -6.9167563377418D-03 -2.4668626262983D-02
   192  1.9100000000000D+00 -5.5553836592789D-03 -2.0960284837578D-02
   193  1.9200000000000D+00 -4.3615442309523D-03 -1.7384942876809D-02
   194  1.9300000000000D+00 -3.3250160810596D-03 -1.4011335421720D-02
   195  1.9400000000000D+00 -2.4365549530260D-03 -1.0903798247420D-02
   196  1.9500000000000D+00 -1.6876827651574D-03 -8.1170518366413D-03
   197  1.9600000000000D+00 -1.0706693062269D-03 -5.6926636030075D-03
   198  1.9700000000000D+00 -5.7985665463413D-04 -3.6619155429493D-03
   199  1.9800000000000D+00 -2.1029301434555D-04 -2.1137502838810D-03
   200  1.9900000000000D+00  4.5877077382273D-05 -1.1061857676980D-03
   201  2.0000000000000D+00  1.8261555973453D-04 -5.4435393413041D-04
   202  2.0100000000000D+00  1.9425002121319D-04 -2.5263484095462D-04
   203  2.0200000000000D+00  1.0808846477437D-04 -8.6171913624453D-05
   204  2.0300000000000D+00  7.3333966685715D-06 -4.3433184106208D-06
   205  2.0400000000000D+00 -2.6718976271380D-05  1.3248304935596D-05
   206  2.0500000000000D+00 -1.4298399136910D-05  5.8572674505103D-06
   207  2.0600000000000D+00  3.8319132357033D-06 -2.6880029156947D-06
   208  2.0700000000000D+00  5.3834488877550D-06 -3.5403152184422D-06
   209  2.0800000000000D+00 -7.6014373601641D-09  1.2227504949139D-08
   210  2.0900000000000D+00 -5.7323533844310D-07  9.2209375749998D-07
   211  2.1000000000000D+00 -3.1939400672541D-07  5.1377017436555D-07
   212  2.1100000000000D+00  0.0000000000000D+00  0.0000000000000D+00
   213  2.1200000000000D+00  0.0000000000000D+00  0.0000000000000D+00
   214  2.1300000000000D+00  0.0000000000000D+00  0.0000000000000D+00
   215  2.1400000000000D+00  0.0000000000000D+00  0.0000000000000D+00
   216  2.1500000000000D+00  0.0000000000000D+00  0.0000000000000D+00
   217  2.1600000000000D+00  0.0000000000000D+00  0.0000000000000D+00
   218  2.1700000000000D+00  0.0000000000000D+00  0.0000000000000D+00
   219  2.1800000000000D+00  0.0000000000000D+00  0.0000000000000D+00
   220  2.1900000000000D+00  0.0000000000000D+00  0.0000000000000D+00
   221  2.2000000000000D+00  0.0000000000000D+00  0.0000000000000D+00
   222  2.2100000000000D+00  0.0000000000000D+00  0.0000000000000D+00
   223  2.2200000000000D+00  0.0000000000000D+00  0.0000000000000D+00
   224  2.2300000000000D+00  0.0000000000000D+00  0.0000000000000D+00
   225  2.2400000000000D+00  0.0000000000000D+00  0.0000000000000D+00
   226  2.2500000000000D+00  0.0000000000000D+00  0.0000000000000D+00
   227  2.2600000000000D+00  0.0000000000000D+00  0.0000000000000D+00
   228  2.2700000000000D+00  0.0000000000000D+00  0.0000000000000D+00
   229  2.2800000000000D+00  0.0000000000000D+00  0.0000000000000D+00
   230  2.2900000000000D+00  0.0000000000000D+00  0.0000000000000D+00
   231  2.3000000000000D+00  0.0000000000000D+00  0.0000000000000D+00
   232  2.3100000000000D+00  0.0000000000000D+00  0.0000000000000D+00
   233  2.3200000000000D+00  0.0000000000000D+00  0.0000000000000D+00
   234  2.3300000000000D+00  0.0000000000000D+00  0.0000000000000D+00
   235  2.3400000000000D+00  0.0000000000000D+00  0.0000000000000D+00
   236  2.3500000000000D+00  0.0000000000000D+00  0.0000000000000D+00
   237  2.3600000000000D+00  0.0000000000000D+00  0.0000000000000D+00
   238  2.3700000000000D+00  0.0000000000000D+00  0.0000000000000D+00
   239  2.3800000000000D+00  0.0000000000000D+00  0.0000000000000D+00
   240  2.3900000000000D+00  0.0000000000000D+00  0.0000000000000D+00
   241  2.4000000000000D+00  0.0000000000000D+00  0.0000000000000D+00
   242  2.4100000000000D+00  0.0000000000000D+00  0.0000000000000D+00
   243  2.4200000000000D+00  0.0000000000000D+00  0.0000000000000D+00
   244  2.4300000000000D+00  0.0000000000000D+00  0.0000000000000D+00
   245  2.4400000000000D+00  0.0000000000000D+00  0.0000000000000D+00
   246  2.4500000000000D+00  0.0000000000000D+00  0.0000000000000D+00
   247  2.4600000000000D+00  0.0000000000000D+00  0.0000000000000D+00
   248  2.4700000000000D+00  0.0000000000000D+00  0.0000000000000D+00
   249  2.4800000000000D+00  0.0000000000000D+00  0.0000000000000D+00
   250  2.4900000000000D+00  0.0000000000000D+00  0.0000000000000D+00
   251  2.5000000000000D+00  0.0000000000000D+00  0.0000000000000D+00
   252  2.5100000000000D+00  0.0000000000000D+00  0.0000000000000D+00
   253  2.5200000000000D+00  0.0000000000000D+00  0.0000000000000D+00
   254  2.5300000000000D+00  0.0000000000000D+00  0.0000000000000D+00
   255  2.5400000000000D+00  0.0000000000000D+00  0.0000000000000D+00
   256  2.5500000000000D+00  0.0000000000000D+00  0.0000000000000D+00
   257  2.5600000000000D+00  0.0000000000000D+00  0.0000000000000D+00
   258  2.5700000000000D+00  0.0000000000000D+00  0.0000000000000D+00
   259  2.5800000000000D+00  0.0000000000000D+00  0.0000000000000D+00
   260  2.5900000000000D+00  0.0000000000000D+00  0.0000000000000D+00
   261  2.6000000000000D+00  0.0000000000000D+00  0.0000000000000D+00
   262  2.6100000000000D+00  0.0000000000000D+00  0.0000000000000D+00
   263  2.6200000000000D+00  0.0000000000000D+00  0.0000000000000D+00
   264  2.6300000000000D+00  0.0000000000000D+00  0.0000000000000D+00
   265  2.6400000000000D+00  0.0000000000000D+00  0.0000000000000D+00
   266  2.6500000000000D+00  0.0000000000000D+00  0.0000000000000D+00
   267  2.6600000000000D+00  0.0000000000000D+00  0.0000000000000D+00
   268  2.6700000000000D+00  0.0000000000000D+00  0.0000000000000D+00
   269  2.6800000000000D+00  0.0000000000000D+00  0.0000000000000D+00
   270  2.6900000000000D+00  0.0000000000000D+00  0.0000000000000D+00
   271  2.7000000000000D+00  0.0000000000000D+00  0.0000000000000D+00
   272  2.7100000000000D+00  0.0000000000000D+00  0.0000000000000D+00
   273  2.7200000000000D+00  0.0000000000000D+00  0.0000000000000D+00
   274  2.7300000000000D+00  0.0000000000000D+00  0.0000000000000D+00
   275  2.7400000000000D+00  0.0000000000000D+00  0.0000000000000D+00
   276  2.7500000000000D+00  0.0000000000000D+00  0.0000000000000D+00
   277  2.7600000000000D+00  0.0000000000000D+00  0.0000000000000D+00
   278  2.7700000000000D+00  0.0000000000000D+00  0.0000000000000D+00
   279  2.7800000000000D+00  0.0000000000000D+00  0.0000000000000D+00
   280  2.7900000000000D+00  0.0000000000000D+00  0.0000000000000D+00
   281  2.8000000000000D+00  0.0000000000000D+00  0.0000000000000D+00
   282  2.8100000000000D+00  0.0000000000000D+00  0.0000000000000D+00
   283  2.8200000000000D+00  0.0000000000000D+00  0.0000000000000D+00
   284  2.8300000000000D+00  0.0000000000000D+00  0.0000000000000D+00
   285  2.8400000000000D+00  0.0000000000000D+00  0.0000000000000D+00
   286  2.8500000000000D+00  0.0000000000000D+00  0.0000000000000D+00
   287  2.8600000000000D+00  0.0000000000000D+00  0.0000000000000D+00
   288  2.8700000000000D+00  0.0000000000000D+00  0.0000000000000D+00
   289  2.8800000000000D+00  0.0000000000000D+00  0.0000000000000D+00
   290  2.8900000000000D+00  0.0000000000000D+00  0.0000000000000D+00
   291  2.9000000000000D+00  0.0000000000000D+00  0.0000000000000D+00
   292  2.9100000000000D+00  0.0000000000000D+00  0.0000000000000D+00
   293  2.9200000000000D+00  0.0000000000000D+00  0.0000000000000D+00
   294  2.9300000000000D+00  0.0000000000000D+00  0.0000000000000D+00
   295  2.9400000000000D+00  0.0000000000000D+00  0.0000000000000D+00
   296  2.9500000000000D+00  0.0000000000000D+00  0.0000000000000D+00
   297  2.9600000000000D+00  0.0000000000000D+00  0.0000000000000D+00
   298  2.9700000000000D+00  0.0000000000000D+00  0.0000000000000D+00
   299  2.9800000000000D+00  0.0000000000000D+00  0.0000000000000D+00
   300  2.9900000000000D+00  0.0000000000000D+00  0.0000000000000D+00
   301  3.0000000000000D+00  0.0000000000000D+00  0.0000000000000D+00
   302  3.0100000000000D+00  0.0000000000000D+00  0.0000000000000D+00
   303  3.0200000000000D+00  0.0000000000000D+00  0.0000000000000D+00
   304  3.0300000000000D+00  0.0000000000000D+00  0.0000000000000D+00
   305  3.0400000000000D+00  0.0000000000000D+00  0.0000000000000D+00
   306  3.0500000000000D+00  0.0000000000000D+00  0.0000000000000D+00
   307  3.0600000000000D+00  0.0000000000000D+00  0.0000000000000D+00
   308  3.0700000000000D+00  0.0000000000000D+00  0.0000000000000D+00
   309  3.0800000000000D+00  0.0000000000000D+00  0.0000000000000D+00
   310  3.0900000000000D+00  0.0000000000000D+00  0.0000000000000D+00
   311  3.1000000000000D+00  0.0000000000000D+00  0.0000000000000D+00
   312  3.1100000000000D+00  0.0000000000000D+00  0.0000000000000D+00
   313  3.1200000000000D+00  0.0000000000000D+00  0.0000000000000D+00
   314  3.1300000000000D+00  0.0000000000000D+00  0.0000000000000D+00
   315  3.1400000000000D+00  0.0000000000000D+00  0.0000000000000D+00
   316  3.1500000000000D+00  0.0000000000000D+00  0.0000000000000D+00
   317  3.1600000000000D+00  0.0000000000000D+00  0.0000000000000D+00
   318  3.1700000000000D+00  0.0000000000000D+00  0.0000000000000D+00
   319  3.1800000000000D+00  0.0000000000000D+00  0.0000000000000D+00
   320  3.1900000000000D+00  0.0000000000000D+00  0.0000000000000D+00
   321  3.2000000000000D+00  0.0000000000000D+00  0.0000000000000D+00
   322  3.2100000000000D+00  0.0000000000000D+00  0.0000000000000D+00
   323  3.2200000000000D+00  0.0000000000000D+00  0.0000000000000D+00
   324  3.2300000000000D+00  0.0000000000000D+00  0.0000000000000D+00
   325  3.2400000000000D+00  0.0000000000000D+00  0.0000000000000D+00
   326  3.2500000000000D+00  0.0000000000000D+00  0.0000000000000D+00
   327  3.2600000000000D+00  0.0000000000000D+00  0.0000000000000D+00
   328  3.2700000000000D+00  0.0000000000000D+00  0.0000000000000D+00
   329  3.2800000000000D+00  0.0000000000000D+00  0.0000000000000D+00
   330  3.2900000000000D+00  0.0000000000000D+00  0.0000000000000D+00
   331  3.3000000000000D+00  0.0000000000000D+00  0.0000000000000D+00
   332  3.3100000000000D+00  0.0000000000000D+00  0.0000000000000D+00
   333  3.3200000000000D+00  0.0000000000000D+00  0.0000000000000D+00
   334  3.3300000000000D+00  0.0000000000000D+00  0.0000000000000D+00
   335  3.3400000000000D+00  0.0000000000000D+00  0.0000000000000D+00
   336  3.3500000000000D+00  0.0000000000000D+00  0.0000000000000D+00
   337  3.3600000000000D+00  0.0000000000000D+00  0.0000000000000D+00
   338  3.3700000000000D+00  0.0000000000000D+00  0.0000000000000D+00
   339  3.3800000000000D+00  0.0000000000000D+00  0.0000000000000D+00
   340  3.3900000000000D+00  0.0000000000000D+00  0.0000000000000D+00
   341  3.4000000000000D+00  0.0000000000000D+00  0.0000000000000D+00
   342  3.4100000000000D+00  0.0000000000000D+00  0.0000000000000D+00
   343  3.4200000000000D+00  0.0000000000000D+00  0.0000000000000D+00
   344  3.4300000000000D+00  0.0000000000000D+00  0.0000000000000D+00
   345  3.4400000000000D+00  0.0000000000000D+00  0.0000000000000D+00
   346  3.4500000000000D+00  0.0000000000000D+00  0.0000000000000D+00
   347  3.4600000000000D+00  0.0000000000000D+00  0.0000000000000D+00
   348  3.4700000000000D+00  0.0000000000000D+00  0.0000000000000D+00
   349  3.4800000000000D+00  0.0000000000000D+00  0.0000000000000D+00
   350  3.4900000000000D+00  0.0000000000000D+00  0.0000000000000D+00
   351  3.5000000000000D+00  0.0000000000000D+00  0.0000000000000D+00
   352  3.5100000000000D+00  0.0000000000000D+00  0.0000000000000D+00
   353  3.5200000000000D+00  0.0000000000000D+00  0.0000000000000D+00
   354  3.5300000000000D+00  0.0000000000000D+00  0.0000000000000D+00
   355  3.5400000000000D+00  0.0000000000000D+00  0.0000000000000D+00
   356  3.5500000000000D+00  0.0000000000000D+00  0.0000000000000D+00
   357  3.5600000000000D+00  0.0000000000000D+00  0.0000000000000D+00
   358  3.5700000000000D+00  0.0000000000000D+00  0.0000000000000D+00
   359  3.5800000000000D+00  0.0000000000000D+00  0.0000000000000D+00
   360  3.5900000000000D+00  0.0000000000000D+00  0.0000000000000D+00
   361  3.6000000000000D+00  0.0000000000000D+00  0.0000000000000D+00
   362  3.6100000000000D+00  0.0000000000000D+00  0.0000000000000D+00
   363  3.6200000000000D+00  0.0000000000000D+00  0.0000000000000D+00
   364  3.6300000000000D+00  0.0000000000000D+00  0.0000000000000D+00
   365  3.6400000000000D+00  0.0000000000000D+00  0.0000000000000D+00
   366  3.6500000000000D+00  0.0000000000000D+00  0.0000000000000D+00
   367  3.6600000000000D+00  0.0000000000000D+00  0.0000000000000D+00
   368  3.6700000000000D+00  0.0000000000000D+00  0.0000000000000D+00
   369  3.6800000000000D+00  0.0000000000000D+00  0.0000000000000D+00
   370  3.6900000000000D+00  0.0000000000000D+00  0.0000000000000D+00
   371  3.7000000000000D+00  0.0000000000000D+00  0.0000000000000D+00
   372  3.7100000000000D+00  0.0000000000000D+00  0.0000000000000D+00
   373  3.7200000000000D+00  0.0000000000000D+00  0.0000000000000D+00
   374  3.7300000000000D+00  0.0000000000000D+00  0.0000000000000D+00
   375  3.7400000000000D+00  0.0000000000000D+00  0.0000000000000D+00
   376  3.7500000000000D+00  0.0000000000000D+00  0.0000000000000D+00
   377  3.7600000000000D+00  0.0000000000000D+00  0.0000000000000D+00
   378  3.7700000000000D+00  0.0000000000000D+00  0.0000000000000D+00
   379  3.7800000000000D+00  0.0000000000000D+00  0.0000000000000D+00
   380  3.7900000000000D+00  0.0000000000000D+00  0.0000000000000D+00
   381  3.8000000000000D+00  0.0000000000000D+00  0.0000000000000D+00
   382  3.8100000000000D+00  0.0000000000000D+00  0.0000000000000D+00
   383  3.8200000000000D+00  0.0000000000000D+00  0.0000000000000D+00
   384  3.8300000000000D+00  0.0000000000000D+00  0.0000000000000D+00
   385  3.8400000000000D+00  0.0000000000000D+00  0.0000000000000D+00
   386  3.8500000000000D+00  0.0000000000000D+00  0.0000000000000D+00
   387  3.8600000000000D+00  0.0000000000000D+00  0.0000000000000D+00
   388  3.8700000000000D+00  0.0000000000000D+00  0.0000000000000D+00
   389  3.8800000000000D+00  0.0000000000000D+00  0.0000000000000D+00
   390  3.8900000000000D+00  0.0000000000000D+00  0.0000000000000D+00
   391  3.9000000000000D+00  0.0000000000000D+00  0.0000000000000D+00
   392  3.9100000000000D+00  0.0000000000000D+00  0.0000000000000D+00
   393  3.9200000000000D+00  0.0000000000000D+00  0.0000000000000D+00
   394  3.9300000000000D+00  0.0000000000000D+00  0.0000000000000D+00
   395  3.9400000000000D+00  0.0000000000000D+00  0.0000000000000D+00
   396  3.9500000000000D+00  0.0000000000000D+00  0.0000000000000D+00
   397  3.9600000000000D+00  0.0000000000000D+00  0.0000000000000D+00
   398  3.9700000000000D+00  0.0000000000000D+00  0.0000000000000D+00
   399  3.9800000000000D+00  0.0000000000000D+00  0.0000000000000D+00
   400  3.9900000000000D+00  0.0000000000000D+00  0.0000000000000D+00
   401  4.0000000000000D+00  0.0000000000000D+00  0.0000000000000D+00
   402  4.0100000000000D+00  0.0000000000000D+00  0.0000000000000D+00
   403  4.0200000000000D+00  0.0000000000000D+00  0.0000000000000D+00
   404  4.0300000000000D+00  0.0000000000000D+00  0.0000000000000D+00
   405  4.0400000000000D+00  0.0000000000000D+00  0.0000000000000D+00
   406  4.0500000000000D+00  0.0000000000000D+00  0.0000000000000D+00
   407  4.0600000000000D+00  0.0000000000000D+00  0.0000000000000D+00
   408  4.0700000000000D+00  0.0000000000000D+00  0.0000000000000D+00
   409  4.0800000000000D+00  0.0000000000000D+00  0.0000000000000D+00
   410  4.0900000000000D+00  0.0000000000000D+00  0.0000000000000D+00
   411  4.1000000000000D+00  0.0000000000000D+00  0.0000000000000D+00
   412  4.1100000000000D+00  0.0000000000000D+00  0.0000000000000D+00
   413  4.1200000000000D+00  0.0000000000000D+00  0.0000000000000D+00
   414  4.1300000000000D+00  0.0000000000000D+00  0.0000000000000D+00
   415  4.1400000000000D+00  0.0000000000000D+00  0.0000000000000D+00
   416  4.1500000000000D+00  0.0000000000000D+00  0.0000000000000D+00
   417  4.1600000000000D+00  0.0000000000000D+00  0.0000000000000D+00
   418  4.1700000000000D+00  0.0000000000000D+00  0.0000000000000D+00
   419  4.1800000000000D+00  0.0000000000000D+00  0.0000000000000D+00
   420  4.1900000000000D+00  0.0000000000000D+00  0.0000000000000D+00
   421  4.2000000000000D+00  0.0000000000000D+00  0.0000000000000D+00
   422  4.2100000000000D+00  0.0000000000000D+00  0.0000000000000D+00