Ni    ONCVPSP-3.3.0  r_core=   1.20240   1.26116   1.56322
     28.0000     18.0000      220117    zatom,zion,pspd
     8      11   2     4   600     0    pspcod,pspxc,lmax,lloc,mmax,r2well
  5.99000000  0.00000000  0.00000000    rchrg fchrg qchrg
     2     2     2     0     0    nproj
     1     1           extension_switch
   0                         7.6644838470350D+00 -3.1379627244117D-01
     1  0.0000000000000D+00 -2.3388738723540D-09 -1.6213225983996D-08
     2  1.0000000000000D-02  1.1337147797611D-01  5.0001156956910D-02
     3  2.0000000000000D-02  2.2626465554287D-01  9.9433979712560D-02
     4  3.0000000000000D-02  3.3820438063825D-01  1.4774030791027D-01
     5  4.0000000000000D-02  4.4872176204275D-01  1.9438212479399D-01
     6  5.0000000000000D-02  5.5735721078574D-01  2.3885112306189D-01
     7  6.0000000000000D-02  6.6366337644392D-01  2.8067767546321D-01
     8  7.0000000000000D-02  7.6720794610927D-01  3.1943903125112D-01
     9  8.0000000000000D-02  8.6757627614297D-01  3.5476657581790D-01
    10  9.0000000000000D-02  9.6437382966602D-01  3.8635201045705D-01
    11  1.0000000000000D-01  1.0572283960112D+00  4.1395233181035D-01
    12  1.1000000000000D-01  1.1457920720080D+00  4.3739351568860D-01
    13  1.2000000000000D-01  1.2297429889217D+00  4.5657283707616D-01
    14  1.3000000000000D-01  1.3087867730361D+00  4.7145978666975D-01
    15  1.4000000000000D-01  1.3826577321837D+00  4.8209557365917D-01
    16  1.5000000000000D-01  1.4511197648887D+00  4.8859123401338D-01
    17  1.6000000000000D-01  1.5139669931234D+00  4.9112439266304D-01
    18  1.7000000000000D-01  1.5710241238955D+00  4.8993475605471D-01
    19  1.8000000000000D-01  1.6221465488993D+00  4.8531843799536D-01
    20  1.9000000000000D-01  1.6672201952088D+00  4.7762124594592D-01
    21  2.0000000000000D-01  1.7061611433784D+00  4.6723107644143D-01
    22  2.1000000000000D-01  1.7389150323014D+00  4.5456958665214D-01
    23  2.2000000000000D-01  1.7654562726878D+00  4.4008332385744D-01
    24  2.3000000000000D-01  1.7857870930220D+00  4.2423450546450D-01
    25  2.4000000000000D-01  1.7999364433175D+00  4.0749164892386D-01
    26  2.5000000000000D-01  1.8079587828699D+00  3.9032025332500D-01
    27  2.6000000000000D-01  1.8099327785164D+00  3.7317373253302D-01
    28  2.7000000000000D-01  1.8059599396421D+00  3.5648479348458D-01
    29  2.8000000000000D-01  1.7961632153442D+00  3.4065744281858D-01
    30  2.9000000000000D-01  1.7806855778012D+00  3.2605979058945D-01
    31  3.0000000000000D-01  1.7596886140372D+00  3.1301780169434D-01
    32  3.1000000000000D-01  1.7333511459659D+00  3.0181012422147D-01
    33  3.2000000000000D-01  1.7018678959119D+00  2.9266409964465D-01
    34  3.3000000000000D-01  1.6654482117938D+00  2.8575303316435D-01
    35  3.4000000000000D-01  1.6243148629041D+00  2.8119477409621D-01
    36  3.5000000000000D-01  1.5787029137998D+00  2.7905162664335D-01
    37  3.6000000000000D-01  1.5288586803209D+00  2.7933158129460D-01
    38  3.7000000000000D-01  1.4750387682588D+00  2.8199082712403D-01
    39  3.8000000000000D-01  1.4175091917942D+00  2.8693747607700D-01
    40  3.9000000000000D-01  1.3565445655910D+00  2.9403640256252D-01
    41  4.0000000000000D-01  1.2924273614590D+00  3.0311507594138D-01
    42  4.1000000000000D-01  1.2254472178459D+00  3.1397024038537D-01
    43  4.2000000000000D-01  1.1559002881663D+00  3.2637527660688D-01
    44  4.3000000000000D-01  1.0840886121713D+00  3.4008806358219D-01
    45  4.4000000000000D-01  1.0103194932637D+00  3.5485914600264D-01
    46  4.5000000000000D-01  9.3490486389484D-01  3.7044000508851D-01
    47  4.6000000000000D-01  8.5816062098305D-01  3.8659122680752D-01
    48  4.7000000000000D-01  7.8040591365835D-01  4.0309036256624D-01
    49  4.8000000000000D-01  7.0196236658482D-01  4.1973928311385D-01
    50  4.9000000000000D-01  6.2315322360817D-01  4.3637083662622D-01
    51  5.0000000000000D-01  5.4430239850340D-01  4.5285463655242D-01
    52  5.1000000000000D-01  4.6573342210833D-01  4.6910182350829D-01
    53  5.2000000000000D-01  3.8776827807544D-01  4.8506866795355D-01
    54  5.3000000000000D-01  3.1072612278817D-01  5.0075890611419D-01
    55  5.4000000000000D-01  2.3492188859434D-01  5.1622473006560D-01
    56  5.5000000000000D-01  1.6066477333180D-01  5.3156638353131D-01
    57  5.6000000000000D-01  8.8256623065190D-02  5.4693034708046D-01
    58  5.7000000000000D-01  1.7990218922307D-02  5.6250612931011D-01
    59  5.8000000000000D-01 -4.9852517165902D-02  5.7852171370938D-01
    60  5.9000000000000D-01 -1.1500237928432D-01  5.9523774321412D-01
    61  6.0000000000000D-01 -1.7720477487469D-01  6.1294055563868D-01
    62  6.1000000000000D-01 -2.3622163743558D-01  6.3193421207972D-01
    63  6.2000000000000D-01 -2.9183332670576D-01  6.5253168676973D-01
    64  6.3000000000000D-01 -3.4384048626847D-01  6.7504540979679D-01
    65  6.4000000000000D-01 -3.9206582690174D-01  6.9977737318738D-01
    66  6.5000000000000D-01 -4.3635580302291D-01  7.2700902563361D-01
    67  6.6000000000000D-01 -4.7658214928291D-01  7.5699119109790D-01
    68  6.7000000000000D-01 -5.1264324477764D-01  7.8993425152669D-01
    69  6.8000000000000D-01 -5.4446527348549D-01  8.2599883364990D-01
    70  6.9000000000000D-01 -5.7200315140857D-01  8.6528723426811D-01
    71  7.0000000000000D-01 -5.9524119345194D-01  9.0783580771000D-01
    72  7.1000000000000D-01 -6.1419349633933D-01  9.5360852315772D-01
    73  7.2000000000000D-01 -6.2890401772743D-01  1.0024918788403D+00
    74  7.3000000000000D-01 -6.3944633612202D-01  1.0542913348750D+00
    75  7.4000000000000D-01 -6.4592308113799D-01  1.1087293972480D+00
    76  7.5000000000000D-01 -6.4846502894770D-01  1.1654454529388D+00
    77  7.6000000000000D-01 -6.4722986343163D-01  1.2239974204955D+00
    78  7.7000000000000D-01 -6.4240060934476D-01  1.2838652429936D+00
    79  7.8000000000000D-01 -6.3418374972991D-01  1.3444562113816D+00
    80  7.9000000000000D-01 -6.2280704567764D-01  1.4051120668462D+00
    81  8.0000000000000D-01 -6.0851708224353D-01  1.4651177917695D+00
    82  8.1000000000000D-01 -5.9157656976758D-01  1.5237119609297D+00
    83  8.2000000000000D-01 -5.7226143487955D-01  1.5800984886512D+00
    84  8.3000000000000D-01 -5.5085774000825D-01  1.6334595744126D+00
    85  8.4000000000000D-01 -5.2765847413818D-01  1.6829696197305D+00
    86  8.5000000000000D-01 -5.0296026078192D-01  1.7278098636171D+00
    87  8.6000000000000D-01 -4.7706003158104D-01  1.7671834631736D+00
    88  8.7000000000000D-01 -4.5025171554519D-01  1.8003307304274D+00
    89  8.8000000000000D-01 -4.2282299464045D-01  1.8265442267560D+00
    90  8.9000000000000D-01 -3.9505217620982D-01  1.8451834124614D+00
    91  9.0000000000000D-01 -3.6720523153680D-01  1.8556885514171D+00
    92  9.1000000000000D-01 -3.3953304775252D-01  1.8575935792715D+00
    93  9.2000000000000D-01 -3.1226893725933D-01  1.8505376583507D+00
    94  9.3000000000000D-01 -2.8562644494326D-01  1.8342751629559D+00
    95  9.4000000000000D-01 -2.5979748873237D-01  1.8086838648617D+00
    96  9.5000000000000D-01 -2.3495086360677D-01  1.7737711200217D+00
    97  9.6000000000000D-01 -2.1123113307083D-01  1.7296778932216D+00
    98  9.7000000000000D-01 -1.8875792546847D-01  1.6766804970041D+00
    99  9.8000000000000D-01 -1.6762564549295D-01  1.6151899637697D+00
   100  9.9000000000000D-01 -1.4790360377679D-01  1.5457490157595D+00
   101  1.0000000000000D+00 -1.2963656030318D-01  1.4690266418536D+00
   102  1.0100000000000D+00 -1.1284566944011D-01  1.3858103397529D+00
   103  1.0200000000000D+00 -9.7529807361618D-02  1.2969961264789D+00
   104  1.0300000000000D+00 -8.3667255416510D-02  1.2035764658571D+00
   105  1.0400000000000D+00 -7.1217706380099D-02  1.1066263040250D+00
   106  1.0500000000000D+00 -6.0124554256160D-02  1.0072874444464D+00
   107  1.0600000000000D+00 -5.0317423253833D-02  9.0675152665144D-01
   108  1.0700000000000D+00 -4.1714886351835D-02  8.0624190712477D-01
   109  1.0800000000000D+00 -3.4227320438622D-02  7.0699476358931D-01
   110  1.0900000000000D+00 -2.7759842048476D-02  6.1023976401175D-01
   111  1.1000000000000D+00 -2.2215266008391D-02  5.1718065386670D-01
   112  1.1100000000000D+00 -1.7497028391020D-02  4.2897612208428D-01
   113  1.1200000000000D+00 -1.3512015540817D-02  3.4672130535995D-01
   114  1.1300000000000D+00 -1.0173242320737D-02  2.7143028272886D-01
   115  1.1400000000000D+00 -7.4023256454112D-03  2.0401989510994D-01
   116  1.1500000000000D+00 -5.1317018077116D-03  1.4529520987692D-01
   117  1.1600000000000D+00 -3.3065415268956D-03  9.5936917340838D-02
   118  1.1700000000000D+00 -1.8869181577324D-03  5.6511779503515D-02
   119  1.1800000000000D+00 -8.4295055175624D-04  2.7214830744225D-02
   120  1.1900000000000D+00 -1.7871461689106D-04  8.9615681136719D-03
   121  1.2000000000000D+00  1.0618740174642D-04  1.3301555549248D-03
   122  1.2100000000000D+00  7.7537775514663D-05 -2.0543307647456D-04
   123  1.2200000000000D+00 -1.4827745674978D-05  7.2537112396303D-05
   124  1.2300000000000D+00 -4.8228262197579D-06  2.8968807621342D-05
   125  1.2400000000000D+00  3.8324020830919D-06 -1.5512797273424D-05
   126  1.2500000000000D+00 -2.7127570063654D-07 -1.3289325221974D-06
   127  1.2600000000000D+00 -8.0053343488183D-08 -3.9216742016500D-07
   128  1.2700000000000D+00  0.0000000000000D+00  0.0000000000000D+00
   129  1.2800000000000D+00  0.0000000000000D+00  0.0000000000000D+00
   130  1.2900000000000D+00  0.0000000000000D+00  0.0000000000000D+00
   131  1.3000000000000D+00  0.0000000000000D+00  0.0000000000000D+00
   132  1.3100000000000D+00  0.0000000000000D+00  0.0000000000000D+00
   133  1.3200000000000D+00  0.0000000000000D+00  0.0000000000000D+00
   134  1.3300000000000D+00  0.0000000000000D+00  0.0000000000000D+00
   135  1.3400000000000D+00  0.0000000000000D+00  0.0000000000000D+00
   136  1.3500000000000D+00  0.0000000000000D+00  0.0000000000000D+00
   137  1.3600000000000D+00  0.0000000000000D+00  0.0000000000000D+00
   138  1.3700000000000D+00  0.0000000000000D+00  0.0000000000000D+00
   139  1.3800000000000D+00  0.0000000000000D+00  0.0000000000000D+00
   140  1.3900000000000D+00  0.0000000000000D+00  0.0000000000000D+00
   141  1.4000000000000D+00  0.0000000000000D+00  0.0000000000000D+00
   142  1.4100000000000D+00  0.0000000000000D+00  0.0000000000000D+00
   143  1.4200000000000D+00  0.0000000000000D+00  0.0000000000000D+00
   144  1.4300000000000D+00  0.0000000000000D+00  0.0000000000000D+00
   145  1.4400000000000D+00  0.0000000000000D+00  0.0000000000000D+00
   146  1.4500000000000D+00  0.0000000000000D+00  0.0000000000000D+00
   147  1.4600000000000D+00  0.0000000000000D+00  0.0000000000000D+00
   148  1.4700000000000D+00  0.0000000000000D+00  0.0000000000000D+00
   149  1.4800000000000D+00  0.0000000000000D+00  0.0000000000000D+00
   150  1.4900000000000D+00  0.0000000000000D+00  0.0000000000000D+00
   151  1.5000000000000D+00  0.0000000000000D+00  0.0000000000000D+00
   152  1.5100000000000D+00  0.0000000000000D+00  0.0000000000000D+00
   153  1.5200000000000D+00  0.0000000000000D+00  0.0000000000000D+00
   154  1.5300000000000D+00  0.0000000000000D+00  0.0000000000000D+00
   155  1.5400000000000D+00  0.0000000000000D+00  0.0000000000000D+00
   156  1.5500000000000D+00  0.0000000000000D+00  0.0000000000000D+00
   157  1.5600000000000D+00  0.0000000000000D+00  0.0000000000000D+00
   158  1.5700000000000D+00  0.0000000000000D+00  0.0000000000000D+00
   159  1.5800000000000D+00  0.0000000000000D+00  0.0000000000000D+00
   160  1.5900000000000D+00  0.0000000000000D+00  0.0000000000000D+00
   161  1.6000000000000D+00  0.0000000000000D+00  0.0000000000000D+00
   162  1.6100000000000D+00  0.0000000000000D+00  0.0000000000000D+00
   163  1.6200000000000D+00  0.0000000000000D+00  0.0000000000000D+00
   164  1.6300000000000D+00  0.0000000000000D+00  0.0000000000000D+00
   165  1.6400000000000D+00  0.0000000000000D+00  0.0000000000000D+00
   166  1.6500000000000D+00  0.0000000000000D+00  0.0000000000000D+00
   167  1.6600000000000D+00  0.0000000000000D+00  0.0000000000000D+00
   168  1.6700000000000D+00  0.0000000000000D+00  0.0000000000000D+00
   169  1.6800000000000D+00  0.0000000000000D+00  0.0000000000000D+00
   170  1.6900000000000D+00  0.0000000000000D+00  0.0000000000000D+00
   171  1.7000000000000D+00  0.0000000000000D+00  0.0000000000000D+00
   172  1.7100000000000D+00  0.0000000000000D+00  0.0000000000000D+00
   173  1.7200000000000D+00  0.0000000000000D+00  0.0000000000000D+00
   174  1.7300000000000D+00  0.0000000000000D+00  0.0000000000000D+00
   175  1.7400000000000D+00  0.0000000000000D+00  0.0000000000000D+00
   176  1.7500000000000D+00  0.0000000000000D+00  0.0000000000000D+00
   177  1.7600000000000D+00  0.0000000000000D+00  0.0000000000000D+00
   178  1.7700000000000D+00  0.0000000000000D+00  0.0000000000000D+00
   179  1.7800000000000D+00  0.0000000000000D+00  0.0000000000000D+00
   180  1.7900000000000D+00  0.0000000000000D+00  0.0000000000000D+00
   181  1.8000000000000D+00  0.0000000000000D+00  0.0000000000000D+00
   182  1.8100000000000D+00  0.0000000000000D+00  0.0000000000000D+00
   183  1.8200000000000D+00  0.0000000000000D+00  0.0000000000000D+00
   184  1.8300000000000D+00  0.0000000000000D+00  0.0000000000000D+00
   185  1.8400000000000D+00  0.0000000000000D+00  0.0000000000000D+00
   186  1.8500000000000D+00  0.0000000000000D+00  0.0000000000000D+00
   187  1.8600000000000D+00  0.0000000000000D+00  0.0000000000000D+00
   188  1.8700000000000D+00  0.0000000000000D+00  0.0000000000000D+00
   189  1.8800000000000D+00  0.0000000000000D+00  0.0000000000000D+00
   190  1.8900000000000D+00  0.0000000000000D+00  0.0000000000000D+00
   191  1.9000000000000D+00  0.0000000000000D+00  0.0000000000000D+00
   192  1.9100000000000D+00  0.0000000000000D+00  0.0000000000000D+00
   193  1.9200000000000D+00  0.0000000000000D+00  0.0000000000000D+00
   194  1.9300000000000D+00  0.0000000000000D+00  0.0000000000000D+00
   195  1.9400000000000D+00  0.0000000000000D+00  0.0000000000000D+00
   196  1.9500000000000D+00  0.0000000000000D+00  0.0000000000000D+00
   197  1.9600000000000D+00  0.0000000000000D+00  0.0000000000000D+00
   198  1.9700000000000D+00  0.0000000000000D+00  0.0000000000000D+00
   199  1.9800000000000D+00  0.0000000000000D+00  0.0000000000000D+00
   200  1.9900000000000D+00  0.0000000000000D+00  0.0000000000000D+00
   201  2.0000000000000D+00  0.0000000000000D+00  0.0000000000000D+00
   202  2.0100000000000D+00  0.0000000000000D+00  0.0000000000000D+00
   203  2.0200000000000D+00  0.0000000000000D+00  0.0000000000000D+00
   204  2.0300000000000D+00  0.0000000000000D+00  0.0000000000000D+00
   205  2.0400000000000D+00  0.0000000000000D+00  0.0000000000000D+00
   206  2.0500000000000D+00  0.0000000000000D+00  0.0000000000000D+00
   207  2.0600000000000D+00  0.0000000000000D+00  0.0000000000000D+00
   208  2.0700000000000D+00  0.0000000000000D+00  0.0000000000000D+00
   209  2.0800000000000D+00  0.0000000000000D+00  0.0000000000000D+00
   210  2.0900000000000D+00  0.0000000000000D+00  0.0000000000000D+00
   211  2.1000000000000D+00  0.0000000000000D+00  0.0000000000000D+00
   212  2.1100000000000D+00  0.0000000000000D+00  0.0000000000000D+00
   213  2.1200000000000D+00  0.0000000000000D+00  0.0000000000000D+00
   214  2.1300000000000D+00  0.0000000000000D+00  0.0000000000000D+00
   215  2.1400000000000D+00  0.0000000000000D+00  0.0000000000000D+00
   216  2.1500000000000D+00  0.0000000000000D+00  0.0000000000000D+00
   217  2.1600000000000D+00  0.0000000000000D+00  0.0000000000000D+00
   218  2.1700000000000D+00  0.0000000000000D+00  0.0000000000000D+00
   219  2.1800000000000D+00  0.0000000000000D+00  0.0000000000000D+00
   220  2.1900000000000D+00  0.0000000000000D+00  0.0000000000000D+00
   221  2.2000000000000D+00  0.0000000000000D+00  0.0000000000000D+00
   222  2.2100000000000D+00  0.0000000000000D+00  0.0000000000000D+00
   223  2.2200000000000D+00  0.0000000000000D+00  0.0000000000000D+00
   224  2.2300000000000D+00  0.0000000000000D+00  0.0000000000000D+00
   225  2.2400000000000D+00  0.0000000000000D+00  0.0000000000000D+00
   226  2.2500000000000D+00  0.0000000000000D+00  0.0000000000000D+00
   227  2.2600000000000D+00  0.0000000000000D+00  0.0000000000000D+00
   228  2.2700000000000D+00  0.0000000000000D+00  0.0000000000000D+00
   229  2.2800000000000D+00  0.0000000000000D+00  0.0000000000000D+00
   230  2.2900000000000D+00  0.0000000000000D+00  0.0000000000000D+00
   231  2.3000000000000D+00  0.0000000000000D+00  0.0000000000000D+00
   232  2.3100000000000D+00  0.0000000000000D+00  0.0000000000000D+00
   233  2.3200000000000D+00  0.0000000000000D+00  0.0000000000000D+00
   234  2.3300000000000D+00  0.0000000000000D+00  0.0000000000000D+00
   235  2.3400000000000D+00  0.0000000000000D+00  0.0000000000000D+00
   236  2.3500000000000D+00  0.0000000000000D+00  0.0000000000000D+00
   237  2.3600000000000D+00  0.0000000000000D+00  0.0000000000000D+00
   238  2.3700000000000D+00  0.0000000000000D+00  0.0000000000000D+00
   239  2.3800000000000D+00  0.0000000000000D+00  0.0000000000000D+00
   240  2.3900000000000D+00  0.0000000000000D+00  0.0000000000000D+00
   241  2.4000000000000D+00  0.0000000000000D+00  0.0000000000000D+00
   242  2.4100000000000D+00  0.0000000000000D+00  0.0000000000000D+00
   243  2.4200000000000D+00  0.0000000000000D+00  0.0000000000000D+00
   244  2.4300000000000D+00  0.0000000000000D+00  0.0000000000000D+00
   245  2.4400000000000D+00  0.0000000000000D+00  0.0000000000000D+00
   246  2.4500000000000D+00  0.0000000000000D+00  0.0000000000000D+00
   247  2.4600000000000D+00  0.0000000000000D+00  0.0000000000000D+00
   248  2.4700000000000D+00  0.0000000000000D+00  0.0000000000000D+00
   249  2.4800000000000D+00  0.0000000000000D+00  0.0000000000000D+00
   250  2.4900000000000D+00  0.0000000000000D+00  0.0000000000000D+00
   251  2.5000000000000D+00  0.0000000000000D+00  0.0000000000000D+00
   252  2.5100000000000D+00  0.0000000000000D+00  0.0000000000000D+00
   253  2.5200000000000D+00  0.0000000000000D+00  0.0000000000000D+00
   254  2.5300000000000D+00  0.0000000000000D+00  0.0000000000000D+00
   255  2.5400000000000D+00  0.0000000000000D+00  0.0000000000000D+00
   256  2.5500000000000D+00  0.0000000000000D+00  0.0000000000000D+00
   257  2.5600000000000D+00  0.0000000000000D+00  0.0000000000000D+00
   258  2.5700000000000D+00  0.0000000000000D+00  0.0000000000000D+00
   259  2.5800000000000D+00  0.0000000000000D+00  0.0000000000000D+00
   260  2.5900000000000D+00  0.0000000000000D+00  0.0000000000000D+00
   261  2.6000000000000D+00  0.0000000000000D+00  0.0000000000000D+00
   262  2.6100000000000D+00  0.0000000000000D+00  0.0000000000000D+00
   263  2.6200000000000D+00  0.0000000000000D+00  0.0000000000000D+00
   264  2.6300000000000D+00  0.0000000000000D+00  0.0000000000000D+00
   265  2.6400000000000D+00  0.0000000000000D+00  0.0000000000000D+00
   266  2.6500000000000D+00  0.0000000000000D+00  0.0000000000000D+00
   267  2.6600000000000D+00  0.0000000000000D+00  0.0000000000000D+00
   268  2.6700000000000D+00  0.0000000000000D+00  0.0000000000000D+00
   269  2.6800000000000D+00  0.0000000000000D+00  0.0000000000000D+00
   270  2.6900000000000D+00  0.0000000000000D+00  0.0000000000000D+00
   271  2.7000000000000D+00  0.0000000000000D+00  0.0000000000000D+00
   272  2.7100000000000D+00  0.0000000000000D+00  0.0000000000000D+00
   273  2.7200000000000D+00  0.0000000000000D+00  0.0000000000000D+00
   274  2.7300000000000D+00  0.0000000000000D+00  0.0000000000000D+00
   275  2.7400000000000D+00  0.0000000000000D+00  0.0000000000000D+00
   276  2.7500000000000D+00  0.0000000000000D+00  0.0000000000000D+00
   277  2.7600000000000D+00  0.0000000000000D+00  0.0000000000000D+00
   278  2.7700000000000D+00  0.0000000000000D+00  0.0000000000000D+00
   279  2.7800000000000D+00  0.0000000000000D+00  0.0000000000000D+00
   280  2.7900000000000D+00  0.0000000000000D+00  0.0000000000000D+00
   281  2.8000000000000D+00  0.0000000000000D+00  0.0000000000000D+00
   282  2.8100000000000D+00  0.0000000000000D+00  0.0000000000000D+00
   283  2.8200000000000D+00  0.0000000000000D+00  0.0000000000000D+00
   284  2.8300000000000D+00  0.0000000000000D+00  0.0000000000000D+00
   285  2.8400000000000D+00  0.0000000000000D+00  0.0000000000000D+00
   286  2.8500000000000D+00  0.0000000000000D+00  0.0000000000000D+00
   287  2.8600000000000D+00  0.0000000000000D+00  0.0000000000000D+00
   288  2.8700000000000D+00  0.0000000000000D+00  0.0000000000000D+00
   289  2.8800000000000D+00  0.0000000000000D+00  0.0000000000000D+00
   290  2.8900000000000D+00  0.0000000000000D+00  0.0000000000000D+00
   291  2.9000000000000D+00  0.0000000000000D+00  0.0000000000000D+00
   292  2.9100000000000D+00  0.0000000000000D+00  0.0000000000000D+00
   293  2.9200000000000D+00  0.0000000000000D+00  0.0000000000000D+00
   294  2.9300000000000D+00  0.0000000000000D+00  0.0000000000000D+00
   295  2.9400000000000D+00  0.0000000000000D+00  0.0000000000000D+00
   296  2.9500000000000D+00  0.0000000000000D+00  0.0000000000000D+00
   297  2.9600000000000D+00  0.0000000000000D+00  0.0000000000000D+00
   298  2.9700000000000D+00  0.0000000000000D+00  0.0000000000000D+00
   299  2.9800000000000D+00  0.0000000000000D+00  0.0000000000000D+00
   300  2.9900000000000D+00  0.0000000000000D+00  0.0000000000000D+00
   301  3.0000000000000D+00  0.0000000000000D+00  0.0000000000000D+00
   302  3.0100000000000D+00  0.0000000000000D+00  0.0000000000000D+00
   303  3.0200000000000D+00  0.0000000000000D+00  0.0000000000000D+00
   304  3.0300000000000D+00  0.0000000000000D+00  0.0000000000000D+00
   305  3.0400000000000D+00  0.0000000000000D+00  0.0000000000000D+00
   306  3.0500000000000D+00  0.0000000000000D+00  0.0000000000000D+00
   307  3.0600000000000D+00  0.0000000000000D+00  0.0000000000000D+00
   308  3.0700000000000D+00  0.0000000000000D+00  0.0000000000000D+00
   309  3.0800000000000D+00  0.0000000000000D+00  0.0000000000000D+00
   310  3.0900000000000D+00  0.0000000000000D+00  0.0000000000000D+00
   311  3.1000000000000D+00  0.0000000000000D+00  0.0000000000000D+00
   312  3.1100000000000D+00  0.0000000000000D+00  0.0000000000000D+00
   313  3.1200000000000D+00  0.0000000000000D+00  0.0000000000000D+00
   314  3.1300000000000D+00  0.0000000000000D+00  0.0000000000000D+00
   315  3.1400000000000D+00  0.0000000000000D+00  0.0000000000000D+00
   316  3.1500000000000D+00  0.0000000000000D+00  0.0000000000000D+00
   317  3.1600000000000D+00  0.0000000000000D+00  0.0000000000000D+00
   318  3.1700000000000D+00  0.0000000000000D+00  0.0000000000000D+00
   319  3.1800000000000D+00  0.0000000000000D+00  0.0000000000000D+00
   320  3.1900000000000D+00  0.0000000000000D+00  0.0000000000000D+00
   321  3.2000000000000D+00  0.0000000000000D+00  0.0000000000000D+00
   322  3.2100000000000D+00  0.0000000000000D+00  0.0000000000000D+00
   323  3.2200000000000D+00  0.0000000000000D+00  0.0000000000000D+00
   324  3.2300000000000D+00  0.0000000000000D+00  0.0000000000000D+00
   325  3.2400000000000D+00  0.0000000000000D+00  0.0000000000000D+00
   326  3.2500000000000D+00  0.0000000000000D+00  0.0000000000000D+00
   327  3.2600000000000D+00  0.0000000000000D+00  0.0000000000000D+00
   328  3.2700000000000D+00  0.0000000000000D+00  0.0000000000000D+00
   329  3.2800000000000D+00  0.0000000000000D+00  0.0000000000000D+00
   330  3.2900000000000D+00  0.0000000000000D+00  0.0000000000000D+00
   331  3.3000000000000D+00  0.0000000000000D+00  0.0000000000000D+00
   332  3.3100000000000D+00  0.0000000000000D+00  0.0000000000000D+00
   333  3.3200000000000D+00  0.0000000000000D+00  0.0000000000000D+00
   334  3.3300000000000D+00  0.0000000000000D+00  0.0000000000000D+00
   335  3.3400000000000D+00  0.0000000000000D+00  0.0000000000000D+00
   336  3.3500000000000D+00  0.0000000000000D+00  0.0000000000000D+00
   337  3.3600000000000D+00  0.0000000000000D+00  0.0000000000000D+00
   338  3.3700000000000D+00  0.0000000000000D+00  0.0000000000000D+00
   339  3.3800000000000D+00  0.0000000000000D+00  0.0000000000000D+00
   340  3.3900000000000D+00  0.0000000000000D+00  0.0000000000000D+00
   341  3.4000000000000D+00  0.0000000000000D+00  0.0000000000000D+00
   342  3.4100000000000D+00  0.0000000000000D+00  0.0000000000000D+00
   343  3.4200000000000D+00  0.0000000000000D+00  0.0000000000000D+00
   344  3.4300000000000D+00  0.0000000000000D+00  0.0000000000000D+00
   345  3.4400000000000D+00  0.0000000000000D+00  0.0000000000000D+00
   346  3.4500000000000D+00  0.0000000000000D+00  0.0000000000000D+00
   347  3.4600000000000D+00  0.0000000000000D+00  0.0000000000000D+00
   348  3.4700000000000D+00  0.0000000000000D+00  0.0000000000000D+00
   349  3.4800000000000D+00  0.0000000000000D+00  0.0000000000000D+00
   350  3.4900000000000D+00  0.0000000000000D+00  0.0000000000000D+00
   351  3.5000000000000D+00  0.0000000000000D+00  0.0000000000000D+00
   352  3.5100000000000D+00  0.0000000000000D+00  0.0000000000000D+00
   353  3.5200000000000D+00  0.0000000000000D+00  0.0000000000000D+00
   354  3.5300000000000D+00  0.0000000000000D+00  0.0000000000000D+00
   355  3.5400000000000D+00  0.0000000000000D+00  0.0000000000000D+00
   356  3.5500000000000D+00  0.0000000000000D+00  0.0000000000000D+00
   357  3.5600000000000D+00  0.0000000000000D+00  0.0000000000000D+00
   358  3.5700000000000D+00  0.0000000000000D+00  0.0000000000000D+00
   359  3.5800000000000D+00  0.0000000000000D+00  0.0000000000000D+00
   360  3.5900000000000D+00  0.0000000000000D+00  0.0000000000000D+00
   361  3.6000000000000D+00  0.0000000000000D+00  0.0000000000000D+00
   362  3.6100000000000D+00  0.0000000000000D+00  0.0000000000000D+00
   363  3.6200000000000D+00  0.0000000000000D+00  0.0000000000000D+00
   364  3.6300000000000D+00  0.0000000000000D+00  0.0000000000000D+00
   365  3.6400000000000D+00  0.0000000000000D+00  0.0000000000000D+00
   366  3.6500000000000D+00  0.0000000000000D+00  0.0000000000000D+00
   367  3.6600000000000D+00  0.0000000000000D+00  0.0000000000000D+00
   368  3.6700000000000D+00  0.0000000000000D+00  0.0000000000000D+00
   369  3.6800000000000D+00  0.0000000000000D+00  0.0000000000000D+00
   370  3.6900000000000D+00  0.0000000000000D+00  0.0000000000000D+00
   371  3.7000000000000D+00  0.0000000000000D+00  0.0000000000000D+00
   372  3.7100000000000D+00  0.0000000000000D+00  0.0000000000000D+00
   373  3.7200000000000D+00  0.0000000000000D+00  0.0000000000000D+00
   374  3.7300000000000D+00  0.0000000000000D+00  0.0000000000000D+00
   375  3.7400000000000D+00  0.0000000000000D+00  0.0000000000000D+00
   376  3.7500000000000D+00  0.0000000000000D+00  0.0000000000000D+00
   377  3.7600000000000D+00  0.0000000000000D+00  0.0000000000000D+00
   378  3.7700000000000D+00  0.0000000000000D+00  0.0000000000000D+00
   379  3.7800000000000D+00  0.0000000000000D+00  0.0000000000000D+00
   380  3.7900000000000D+00  0.0000000000000D+00  0.0000000000000D+00
   381  3.8000000000000D+00  0.0000000000000D+00  0.0000000000000D+00
   382  3.8100000000000D+00  0.0000000000000D+00  0.0000000000000D+00
   383  3.8200000000000D+00  0.0000000000000D+00  0.0000000000000D+00
   384  3.8300000000000D+00  0.0000000000000D+00  0.0000000000000D+00
   385  3.8400000000000D+00  0.0000000000000D+00  0.0000000000000D+00
   386  3.8500000000000D+00  0.0000000000000D+00  0.0000000000000D+00
   387  3.8600000000000D+00  0.0000000000000D+00  0.0000000000000D+00
   388  3.8700000000000D+00  0.0000000000000D+00  0.0000000000000D+00
   389  3.8800000000000D+00  0.0000000000000D+00  0.0000000000000D+00
   390  3.8900000000000D+00  0.0000000000000D+00  0.0000000000000D+00
   391  3.9000000000000D+00  0.0000000000000D+00  0.0000000000000D+00
   392  3.9100000000000D+00  0.0000000000000D+00  0.0000000000000D+00
   393  3.9200000000000D+00  0.0000000000000D+00  0.0000000000000D+00
   394  3.9300000000000D+00  0.0000000000000D+00  0.0000000000000D+00
   395  3.9400000000000D+00  0.0000000000000D+00  0.0000000000000D+00
   396  3.9500000000000D+00  0.0000000000000D+00  0.0000000000000D+00
   397  3.9600000000000D+00  0.0000000000000D+00  0.0000000000000D+00
   398  3.9700000000000D+00  0.0000000000000D+00  0.0000000000000D+00
   399  3.9800000000000D+00  0.0000000000000D+00  0.0000000000000D+00
   400  3.9900000000000D+00  0.0000000000000D+00  0.0000000000000D+00
   401  4.0000000000000D+00  0.0000000000000D+00  0.0000000000000D+00
   402  4.0100000000000D+00  0.0000000000000D+00  0.0000000000000D+00
   403  4.0200000000000D+00  0.0000000000000D+00  0.0000000000000D+00
   404  4.0300000000000D+00  0.0000000000000D+00  0.0000000000000D+00
   405  4.0400000000000D+00  0.0000000000000D+00  0.0000000000000D+00
   406  4.0500000000000D+00  0.0000000000000D+00  0.0000000000000D+00
   407  4.0600000000000D+00  0.0000000000000D+00  0.0000000000000D+00
   408  4.0700000000000D+00  0.0000000000000D+00  0.0000000000000D+00
   409  4.0800000000000D+00  0.0000000000000D+00  0.0000000000000D+00
   410  4.0900000000000D+00  0.0000000000000D+00  0.0000000000000D+00
   411  4.1000000000000D+00  0.0000000000000D+00  0.0000000000000D+00
   412  4.1100000000000D+00  0.0000000000000D+00  0.0000000000000D+00
   413  4.1200000000000D+00  0.0000000000000D+00  0.0000000000000D+00
   414  4.1300000000000D+00  0.0000000000000D+00  0.0000000000000D+00
   415  4.1400000000000D+00  0.0000000000000D+00  0.0000000000000D+00
   416  4.1500000000000D+00  0.0000000000000D+00  0.0000000000000D+00
   417  4.1600000000000D+00  0.0000000000000D+00  0.0000000000000D+00
   418  4.1700000000000D+00  0.0000000000000D+00  0.0000000000000D+00
   419  4.1800000000000D+00  0.0000000000000D+00  0.0000000000000D+00
   420  4.1900000000000D+00  0.0000000000000D+00  0.0000000000000D+00
   421  4.2000000000000D+00  0.0000000000000D+00  0.0000000000000D+00
   422  4.2100000000000D+00  0.0000000000000D+00  0.0000000000000D+00