Ni    ONCVPSP-3.3.0  r_core=   1.26116   1.35474   1.65929
     28.0000     18.0000      220117    zatom,zion,pspd
     8      11   2     4   600     0    pspcod,pspxc,lmax,lloc,mmax,r2well
  5.99000000  0.00000000  0.00000000    rchrg fchrg qchrg
     2     2     2     0     0    nproj
     1     1           extension_switch
   0                         6.2545347898318D+00 -2.5174736543686D-01
     1  0.0000000000000D+00 -1.3634220419334D-09 -1.2037495944472D-08
     2  1.0000000000000D-02  1.0435590005887D-01  5.7844836791532D-02
     3  2.0000000000000D-02  2.0831601089892D-01  1.1509529031542D-01
     4  3.0000000000000D-02  3.1148683435948D-01  1.7116619510311D-01
     5  4.0000000000000D-02  4.1347943133624D-01  2.2549065504217D-01
     6  5.0000000000000D-02  5.1391164401638D-01  2.7752876560633D-01
     7  6.0000000000000D-02  6.1241025035496D-01  3.2677584992914D-01
     8  7.0000000000000D-02  7.0861302984136D-01  3.7277006112482D-01
     9  8.0000000000000D-02  8.0217072096836D-01  4.1509921529799D-01
    10  9.0000000000000D-02  8.9274885247353D-01  4.5340673429553D-01
    11  1.0000000000000D-01  9.8002943234360D-01  4.8739659416346D-01
    12  1.1000000000000D-01  1.0637124807228D+00  5.1683719415640D-01
    13  1.2000000000000D-01  1.1435173952062D+00  5.4156408164808D-01
    14  1.3000000000000D-01  1.2191841394870D+00  5.6148149001668D-01
    15  1.4000000000000D-01  1.2904742489183D+00  5.7656266911527D-01
    16  1.5000000000000D-01  1.3571716491964D+00  5.8684901085245D-01
    17  1.6000000000000D-01  1.4190832870288D+00  5.9244799526395D-01
    18  1.7000000000000D-01  1.4760395742690D+00  5.9353000481286D-01
    19  1.8000000000000D-01  1.5278946495291D+00  5.9032407608388D-01
    20  1.9000000000000D-01  1.5745264636875D+00  5.8311267812193D-01
    21  2.0000000000000D-01  1.6158366979331D+00  5.7222562501870D-01
    22  2.1000000000000D-01  1.6517505250112D+00  5.5803324661404D-01
    23  2.2000000000000D-01  1.6822162261054D+00  5.4093895503527D-01
    24  2.3000000000000D-01  1.7072046772873D+00  5.2137135597207D-01
    25  2.4000000000000D-01  1.7267087206640D+00  4.9977606185609D-01
    26  2.5000000000000D-01  1.7407424362322D+00  4.7660736931307D-01
    27  2.6000000000000D-01  1.7493403309917D+00  4.5231996527391D-01
    28  2.7000000000000D-01  1.7525564620895D+00  4.2736082491887D-01
    29  2.8000000000000D-01  1.7504635106335D+00  4.0216146020106D-01
    30  2.9000000000000D-01  1.7431518223672D+00  3.7713067012604D-01
    31  3.0000000000000D-01  1.7307284306276D+00  3.5264793339172D-01
    32  3.1000000000000D-01  1.7133160759473D+00  3.2905757061033D-01
    33  3.2000000000000D-01  1.6910522353312D+00  3.0666378739596D-01
    34  3.3000000000000D-01  1.6640881726738D+00  2.8572669140638D-01
    35  3.4000000000000D-01  1.6325880200119D+00  2.6645935632732D-01
    36  3.5000000000000D-01  1.5967278973831D+00  2.4902598416523D-01
    37  3.6000000000000D-01  1.5566950770121D+00  2.3354119449289D-01
    38  3.7000000000000D-01  1.5126871954324D+00  2.2007044591344D-01
    39  3.8000000000000D-01  1.4649115150110D+00  2.0863157143157D-01
    40  3.9000000000000D-01  1.4135842342258D+00  1.9919738611457D-01
    41  4.0000000000000D-01  1.3589298440047D+00  1.9169930285395D-01
    42  4.1000000000000D-01  1.3011805255097D+00  1.8603187065664D-01
    43  4.2000000000000D-01  1.2405755829870D+00  1.8205813013689D-01
    44  4.3000000000000D-01  1.1773609037467D+00  1.7961566315381D-01
    45  4.4000000000000D-01  1.1117884360185D+00  1.7852319821648D-01
    46  4.5000000000000D-01  1.0441156743855D+00  1.7858762068106D-01
    47  4.6000000000000D-01  9.7460514175280D-01  1.7961122717502D-01
    48  4.7000000000000D-01  9.0352385638514D-01  1.8139905731669D-01
    49  4.8000000000000D-01  8.3114277245429D-01  1.8376613281281D-01
    50  4.9000000000000D-01  7.5773618278910D-01  1.8654443450964D-01
    51  5.0000000000000D-01  6.8358107311093D-01  1.8958945196626D-01
    52  5.1000000000000D-01  6.0895641796020D-01  1.9278614756605D-01
    53  5.2000000000000D-01  5.3414240976146D-01  1.9605418798207D-01
    54  5.3000000000000D-01  4.5941961401196D-01  1.9935230977876D-01
    55  5.4000000000000D-01  3.8506804538216D-01  2.0268170281027D-01
    56  5.5000000000000D-01  3.1136616155484D-01  2.0608831458908D-01
    57  5.6000000000000D-01  2.3858977385913D-01  2.0966400057210D-01
    58  5.7000000000000D-01  1.6701087612852D-01  2.1354646889445D-01
    59  5.8000000000000D-01  9.6896395691311D-02  2.1791799315970D-01
    60  5.9000000000000D-01  2.8506872911553D-02  2.2300289274436D-01
    61  6.0000000000000D-01 -3.7904921783375D-02  2.2906380651866D-01
    62  6.1000000000000D-01 -1.0209542201845D-01  2.3639681201967D-01
    63  6.2000000000000D-01 -1.6383173703050D-01  2.4532546778137D-01
    64  6.3000000000000D-01 -2.2289314482760D-01  2.5619388093042D-01
    65  6.4000000000000D-01 -2.7907258918587D-01  2.6935892489712D-01
    66  6.5000000000000D-01 -3.3217816107108D-01  2.8518175278450D-01
    67  6.6000000000000D-01 -3.8203454375241D-01  3.0401876990858D-01
    68  6.7000000000000D-01 -4.2848439990547D-01  3.2621224410504D-01
    69  6.8000000000000D-01 -4.7138967842467D-01  3.5208074413180D-01
    70  6.9000000000000D-01 -5.1063281850647D-01  3.8190960457830D-01
    71  7.0000000000000D-01 -5.4611782883263D-01  4.1594161998381D-01
    72  7.1000000000000D-01 -5.7777122040018D-01  4.5436817116885D-01
    73  7.2000000000000D-01 -6.0554277270033D-01  4.9732098302939D-01
    74  7.3000000000000D-01 -6.2940611453941D-01  5.4486470527151D-01
    75  7.4000000000000D-01 -6.4935910281025D-01  5.9699049579572D-01
    76  7.5000000000000D-01 -6.6542398490981D-01  6.5361077102802D-01
    77  7.6000000000000D-01 -6.7764733327757D-01  7.1455526832171D-01
    78  7.7000000000000D-01 -6.8609974359293D-01  7.7956854337362D-01
    79  7.8000000000000D-01 -6.9087529151922D-01  8.4830900046174D-01
    80  7.9000000000000D-01 -6.9209074643854D-01  9.2034952581588D-01
    81  8.0000000000000D-01 -6.8988454433145D-01  9.9517976503797D-01
    82  8.1000000000000D-01 -6.8441552575161D-01  1.0722100547368D+00
    83  8.2000000000000D-01 -6.7586144866198D-01  1.1507769870098D+00
    84  8.3000000000000D-01 -6.6441728966406D-01  1.2301505536892D+00
    85  8.4000000000000D-01 -6.5029335079566D-01  1.3095427859829D+00
    86  8.5000000000000D-01 -6.3371319252595D-01  1.3881177748872D+00
    87  8.6000000000000D-01 -6.1491141677071D-01  1.4650029291355D+00
    88  8.7000000000000D-01 -5.9413132662264D-01  1.5393013010411D+00
    89  8.8000000000000D-01 -5.7162249198109D-01  1.6101047869357D+00
    90  8.9000000000000D-01 -5.4763825231910D-01  1.6765079884994D+00
    91  9.0000000000000D-01 -5.2243318939782D-01  1.7376225045461D+00
    92  9.1000000000000D-01 -4.9626060378909D-01  1.7925914101616D+00
    93  9.2000000000000D-01 -4.6937002956846D-01  1.8406036717761D+00
    94  9.3000000000000D-01 -4.4200482147247D-01  1.8809082430164D+00
    95  9.4000000000000D-01 -4.1439984816604D-01  1.9128275871603D+00
    96  9.5000000000000D-01 -3.8677932403943D-01  1.9357703777535D+00
    97  9.6000000000000D-01 -3.5935481016082D-01  1.9492431394045D+00
    98  9.7000000000000D-01 -3.3232341267224D-01  1.9528606058101D+00
    99  9.8000000000000D-01 -3.0586620407696D-01  1.9463545913794D+00
   100  9.9000000000000D-01 -2.8014688946640D-01  1.9295811968716D+00
   101  1.0000000000000D+00 -2.5531073618638D-01  1.9025261951507D+00
   102  1.0100000000000D+00 -2.3148378109916D-01  1.8653084752885D+00
   103  1.0200000000000D+00 -2.0877232537413D-01  1.8181814550174D+00
   104  1.0300000000000D+00 -1.8726272206491D-01  1.7615324071010D+00
   105  1.0400000000000D+00 -1.6702145701512D-01  1.6958796814701D+00
   106  1.0500000000000D+00 -1.4809551864958D-01  1.6218678437247D+00
   107  1.0600000000000D+00 -1.3051304784009D-01  1.5402607847706D+00
   108  1.0700000000000D+00 -1.1428425384234D-01  1.4519328973228D+00
   109  1.0800000000000D+00 -9.9402578127345D-02  1.3578584481952D+00
   110  1.0900000000000D+00 -8.5846083656994D-02  1.2590993094617D+00
   111  1.1000000000000D+00 -7.3579043087541D-02  1.1567912443574D+00
   112  1.1100000000000D+00 -6.2553696480794D-02  1.0521289672949D+00
   113  1.1200000000000D+00 -5.2712145348893D-02  9.4635022807870D-01
   114  1.1300000000000D+00 -4.3988348010996D-02  8.4071918574526D-01
   115  1.1400000000000D+00 -3.6310179164274D-02  7.3650935491311D-01
   116  1.1500000000000D+00 -2.9601515477705D-02  6.3498641688407D-01
   117  1.1600000000000D+00 -2.3784308149773D-02  5.3739119572272D-01
   118  1.1700000000000D+00 -1.8780602634656D-02  4.4492311181306D-01
   119  1.1800000000000D+00 -1.4514467159998D-02  3.5872440555735D-01
   120  1.1900000000000D+00 -1.0913837772644D-02  2.7986485521798D-01
   121  1.2000000000000D+00 -7.9120516191685D-03  2.0932975670577D-01
   122  1.2100000000000D+00 -5.4494052170962D-03  1.4800661777543D-01
   123  1.2200000000000D+00 -3.4761610197894D-03  9.6674966079493D-02
   124  1.2300000000000D+00 -1.9525791789635D-03  5.5907378287956D-02
   125  1.2400000000000D+00 -8.4960176958674D-04  2.5984435424960D-02
   126  1.2500000000000D+00 -1.7964833397407D-04  8.1134078837105D-03
   127  1.2600000000000D+00  8.4191285912067D-05  9.9492090904825D-04
   128  1.2700000000000D+00  5.8586545681792D-05 -2.6516796673848D-04
   129  1.2800000000000D+00 -1.4068797414702D-05  9.7867238086782D-05
   130  1.2900000000000D+00 -4.6713983299407D-06  3.8284659915191D-05
   131  1.3000000000000D+00  3.4767684704205D-06 -2.0218729555276D-05
   132  1.3100000000000D+00 -1.6069498638408D-07 -1.1213934669479D-06
   133  1.3200000000000D+00 -1.3275919876909D-07 -9.2644644071878D-07
   134  1.3300000000000D+00  0.0000000000000D+00  0.0000000000000D+00
   135  1.3400000000000D+00  0.0000000000000D+00  0.0000000000000D+00
   136  1.3500000000000D+00  0.0000000000000D+00  0.0000000000000D+00
   137  1.3600000000000D+00  0.0000000000000D+00  0.0000000000000D+00
   138  1.3700000000000D+00  0.0000000000000D+00  0.0000000000000D+00
   139  1.3800000000000D+00  0.0000000000000D+00  0.0000000000000D+00
   140  1.3900000000000D+00  0.0000000000000D+00  0.0000000000000D+00
   141  1.4000000000000D+00  0.0000000000000D+00  0.0000000000000D+00
   142  1.4100000000000D+00  0.0000000000000D+00  0.0000000000000D+00
   143  1.4200000000000D+00  0.0000000000000D+00  0.0000000000000D+00
   144  1.4300000000000D+00  0.0000000000000D+00  0.0000000000000D+00
   145  1.4400000000000D+00  0.0000000000000D+00  0.0000000000000D+00
   146  1.4500000000000D+00  0.0000000000000D+00  0.0000000000000D+00
   147  1.4600000000000D+00  0.0000000000000D+00  0.0000000000000D+00
   148  1.4700000000000D+00  0.0000000000000D+00  0.0000000000000D+00
   149  1.4800000000000D+00  0.0000000000000D+00  0.0000000000000D+00
   150  1.4900000000000D+00  0.0000000000000D+00  0.0000000000000D+00
   151  1.5000000000000D+00  0.0000000000000D+00  0.0000000000000D+00
   152  1.5100000000000D+00  0.0000000000000D+00  0.0000000000000D+00
   153  1.5200000000000D+00  0.0000000000000D+00  0.0000000000000D+00
   154  1.5300000000000D+00  0.0000000000000D+00  0.0000000000000D+00
   155  1.5400000000000D+00  0.0000000000000D+00  0.0000000000000D+00
   156  1.5500000000000D+00  0.0000000000000D+00  0.0000000000000D+00
   157  1.5600000000000D+00  0.0000000000000D+00  0.0000000000000D+00
   158  1.5700000000000D+00  0.0000000000000D+00  0.0000000000000D+00
   159  1.5800000000000D+00  0.0000000000000D+00  0.0000000000000D+00
   160  1.5900000000000D+00  0.0000000000000D+00  0.0000000000000D+00
   161  1.6000000000000D+00  0.0000000000000D+00  0.0000000000000D+00
   162  1.6100000000000D+00  0.0000000000000D+00  0.0000000000000D+00
   163  1.6200000000000D+00  0.0000000000000D+00  0.0000000000000D+00
   164  1.6300000000000D+00  0.0000000000000D+00  0.0000000000000D+00
   165  1.6400000000000D+00  0.0000000000000D+00  0.0000000000000D+00
   166  1.6500000000000D+00  0.0000000000000D+00  0.0000000000000D+00
   167  1.6600000000000D+00  0.0000000000000D+00  0.0000000000000D+00
   168  1.6700000000000D+00  0.0000000000000D+00  0.0000000000000D+00
   169  1.6800000000000D+00  0.0000000000000D+00  0.0000000000000D+00
   170  1.6900000000000D+00  0.0000000000000D+00  0.0000000000000D+00
   171  1.7000000000000D+00  0.0000000000000D+00  0.0000000000000D+00
   172  1.7100000000000D+00  0.0000000000000D+00  0.0000000000000D+00
   173  1.7200000000000D+00  0.0000000000000D+00  0.0000000000000D+00
   174  1.7300000000000D+00  0.0000000000000D+00  0.0000000000000D+00
   175  1.7400000000000D+00  0.0000000000000D+00  0.0000000000000D+00
   176  1.7500000000000D+00  0.0000000000000D+00  0.0000000000000D+00
   177  1.7600000000000D+00  0.0000000000000D+00  0.0000000000000D+00
   178  1.7700000000000D+00  0.0000000000000D+00  0.0000000000000D+00
   179  1.7800000000000D+00  0.0000000000000D+00  0.0000000000000D+00
   180  1.7900000000000D+00  0.0000000000000D+00  0.0000000000000D+00
   181  1.8000000000000D+00  0.0000000000000D+00  0.0000000000000D+00
   182  1.8100000000000D+00  0.0000000000000D+00  0.0000000000000D+00
   183  1.8200000000000D+00  0.0000000000000D+00  0.0000000000000D+00
   184  1.8300000000000D+00  0.0000000000000D+00  0.0000000000000D+00
   185  1.8400000000000D+00  0.0000000000000D+00  0.0000000000000D+00
   186  1.8500000000000D+00  0.0000000000000D+00  0.0000000000000D+00
   187  1.8600000000000D+00  0.0000000000000D+00  0.0000000000000D+00
   188  1.8700000000000D+00  0.0000000000000D+00  0.0000000000000D+00
   189  1.8800000000000D+00  0.0000000000000D+00  0.0000000000000D+00
   190  1.8900000000000D+00  0.0000000000000D+00  0.0000000000000D+00
   191  1.9000000000000D+00  0.0000000000000D+00  0.0000000000000D+00
   192  1.9100000000000D+00  0.0000000000000D+00  0.0000000000000D+00
   193  1.9200000000000D+00  0.0000000000000D+00  0.0000000000000D+00
   194  1.9300000000000D+00  0.0000000000000D+00  0.0000000000000D+00
   195  1.9400000000000D+00  0.0000000000000D+00  0.0000000000000D+00
   196  1.9500000000000D+00  0.0000000000000D+00  0.0000000000000D+00
   197  1.9600000000000D+00  0.0000000000000D+00  0.0000000000000D+00
   198  1.9700000000000D+00  0.0000000000000D+00  0.0000000000000D+00
   199  1.9800000000000D+00  0.0000000000000D+00  0.0000000000000D+00
   200  1.9900000000000D+00  0.0000000000000D+00  0.0000000000000D+00
   201  2.0000000000000D+00  0.0000000000000D+00  0.0000000000000D+00
   202  2.0100000000000D+00  0.0000000000000D+00  0.0000000000000D+00
   203  2.0200000000000D+00  0.0000000000000D+00  0.0000000000000D+00
   204  2.0300000000000D+00  0.0000000000000D+00  0.0000000000000D+00
   205  2.0400000000000D+00  0.0000000000000D+00  0.0000000000000D+00
   206  2.0500000000000D+00  0.0000000000000D+00  0.0000000000000D+00
   207  2.0600000000000D+00  0.0000000000000D+00  0.0000000000000D+00
   208  2.0700000000000D+00  0.0000000000000D+00  0.0000000000000D+00
   209  2.0800000000000D+00  0.0000000000000D+00  0.0000000000000D+00
   210  2.0900000000000D+00  0.0000000000000D+00  0.0000000000000D+00
   211  2.1000000000000D+00  0.0000000000000D+00  0.0000000000000D+00
   212  2.1100000000000D+00  0.0000000000000D+00  0.0000000000000D+00
   213  2.1200000000000D+00  0.0000000000000D+00  0.0000000000000D+00
   214  2.1300000000000D+00  0.0000000000000D+00  0.0000000000000D+00
   215  2.1400000000000D+00  0.0000000000000D+00  0.0000000000000D+00
   216  2.1500000000000D+00  0.0000000000000D+00  0.0000000000000D+00
   217  2.1600000000000D+00  0.0000000000000D+00  0.0000000000000D+00
   218  2.1700000000000D+00  0.0000000000000D+00  0.0000000000000D+00
   219  2.1800000000000D+00  0.0000000000000D+00  0.0000000000000D+00
   220  2.1900000000000D+00  0.0000000000000D+00  0.0000000000000D+00
   221  2.2000000000000D+00  0.0000000000000D+00  0.0000000000000D+00
   222  2.2100000000000D+00  0.0000000000000D+00  0.0000000000000D+00
   223  2.2200000000000D+00  0.0000000000000D+00  0.0000000000000D+00
   224  2.2300000000000D+00  0.0000000000000D+00  0.0000000000000D+00
   225  2.2400000000000D+00  0.0000000000000D+00  0.0000000000000D+00
   226  2.2500000000000D+00  0.0000000000000D+00  0.0000000000000D+00
   227  2.2600000000000D+00  0.0000000000000D+00  0.0000000000000D+00
   228  2.2700000000000D+00  0.0000000000000D+00  0.0000000000000D+00
   229  2.2800000000000D+00  0.0000000000000D+00  0.0000000000000D+00
   230  2.2900000000000D+00  0.0000000000000D+00  0.0000000000000D+00
   231  2.3000000000000D+00  0.0000000000000D+00  0.0000000000000D+00
   232  2.3100000000000D+00  0.0000000000000D+00  0.0000000000000D+00
   233  2.3200000000000D+00  0.0000000000000D+00  0.0000000000000D+00
   234  2.3300000000000D+00  0.0000000000000D+00  0.0000000000000D+00
   235  2.3400000000000D+00  0.0000000000000D+00  0.0000000000000D+00
   236  2.3500000000000D+00  0.0000000000000D+00  0.0000000000000D+00
   237  2.3600000000000D+00  0.0000000000000D+00  0.0000000000000D+00
   238  2.3700000000000D+00  0.0000000000000D+00  0.0000000000000D+00
   239  2.3800000000000D+00  0.0000000000000D+00  0.0000000000000D+00
   240  2.3900000000000D+00  0.0000000000000D+00  0.0000000000000D+00
   241  2.4000000000000D+00  0.0000000000000D+00  0.0000000000000D+00
   242  2.4100000000000D+00  0.0000000000000D+00  0.0000000000000D+00
   243  2.4200000000000D+00  0.0000000000000D+00  0.0000000000000D+00
   244  2.4300000000000D+00  0.0000000000000D+00  0.0000000000000D+00
   245  2.4400000000000D+00  0.0000000000000D+00  0.0000000000000D+00
   246  2.4500000000000D+00  0.0000000000000D+00  0.0000000000000D+00
   247  2.4600000000000D+00  0.0000000000000D+00  0.0000000000000D+00
   248  2.4700000000000D+00  0.0000000000000D+00  0.0000000000000D+00
   249  2.4800000000000D+00  0.0000000000000D+00  0.0000000000000D+00
   250  2.4900000000000D+00  0.0000000000000D+00  0.0000000000000D+00
   251  2.5000000000000D+00  0.0000000000000D+00  0.0000000000000D+00
   252  2.5100000000000D+00  0.0000000000000D+00  0.0000000000000D+00
   253  2.5200000000000D+00  0.0000000000000D+00  0.0000000000000D+00
   254  2.5300000000000D+00  0.0000000000000D+00  0.0000000000000D+00
   255  2.5400000000000D+00  0.0000000000000D+00  0.0000000000000D+00
   256  2.5500000000000D+00  0.0000000000000D+00  0.0000000000000D+00
   257  2.5600000000000D+00  0.0000000000000D+00  0.0000000000000D+00
   258  2.5700000000000D+00  0.0000000000000D+00  0.0000000000000D+00
   259  2.5800000000000D+00  0.0000000000000D+00  0.0000000000000D+00
   260  2.5900000000000D+00  0.0000000000000D+00  0.0000000000000D+00
   261  2.6000000000000D+00  0.0000000000000D+00  0.0000000000000D+00
   262  2.6100000000000D+00  0.0000000000000D+00  0.0000000000000D+00
   263  2.6200000000000D+00  0.0000000000000D+00  0.0000000000000D+00
   264  2.6300000000000D+00  0.0000000000000D+00  0.0000000000000D+00
   265  2.6400000000000D+00  0.0000000000000D+00  0.0000000000000D+00
   266  2.6500000000000D+00  0.0000000000000D+00  0.0000000000000D+00
   267  2.6600000000000D+00  0.0000000000000D+00  0.0000000000000D+00
   268  2.6700000000000D+00  0.0000000000000D+00  0.0000000000000D+00
   269  2.6800000000000D+00  0.0000000000000D+00  0.0000000000000D+00
   270  2.6900000000000D+00  0.0000000000000D+00  0.0000000000000D+00
   271  2.7000000000000D+00  0.0000000000000D+00  0.0000000000000D+00
   272  2.7100000000000D+00  0.0000000000000D+00  0.0000000000000D+00
   273  2.7200000000000D+00  0.0000000000000D+00  0.0000000000000D+00
   274  2.7300000000000D+00  0.0000000000000D+00  0.0000000000000D+00
   275  2.7400000000000D+00  0.0000000000000D+00  0.0000000000000D+00
   276  2.7500000000000D+00  0.0000000000000D+00  0.0000000000000D+00
   277  2.7600000000000D+00  0.0000000000000D+00  0.0000000000000D+00
   278  2.7700000000000D+00  0.0000000000000D+00  0.0000000000000D+00
   279  2.7800000000000D+00  0.0000000000000D+00  0.0000000000000D+00
   280  2.7900000000000D+00  0.0000000000000D+00  0.0000000000000D+00
   281  2.8000000000000D+00  0.0000000000000D+00  0.0000000000000D+00
   282  2.8100000000000D+00  0.0000000000000D+00  0.0000000000000D+00
   283  2.8200000000000D+00  0.0000000000000D+00  0.0000000000000D+00
   284  2.8300000000000D+00  0.0000000000000D+00  0.0000000000000D+00
   285  2.8400000000000D+00  0.0000000000000D+00  0.0000000000000D+00
   286  2.8500000000000D+00  0.0000000000000D+00  0.0000000000000D+00
   287  2.8600000000000D+00  0.0000000000000D+00  0.0000000000000D+00
   288  2.8700000000000D+00  0.0000000000000D+00  0.0000000000000D+00
   289  2.8800000000000D+00  0.0000000000000D+00  0.0000000000000D+00
   290  2.8900000000000D+00  0.0000000000000D+00  0.0000000000000D+00
   291  2.9000000000000D+00  0.0000000000000D+00  0.0000000000000D+00
   292  2.9100000000000D+00  0.0000000000000D+00  0.0000000000000D+00
   293  2.9200000000000D+00  0.0000000000000D+00  0.0000000000000D+00
   294  2.9300000000000D+00  0.0000000000000D+00  0.0000000000000D+00
   295  2.9400000000000D+00  0.0000000000000D+00  0.0000000000000D+00
   296  2.9500000000000D+00  0.0000000000000D+00  0.0000000000000D+00
   297  2.9600000000000D+00  0.0000000000000D+00  0.0000000000000D+00
   298  2.9700000000000D+00  0.0000000000000D+00  0.0000000000000D+00
   299  2.9800000000000D+00  0.0000000000000D+00  0.0000000000000D+00
   300  2.9900000000000D+00  0.0000000000000D+00  0.0000000000000D+00
   301  3.0000000000000D+00  0.0000000000000D+00  0.0000000000000D+00
   302  3.0100000000000D+00  0.0000000000000D+00  0.0000000000000D+00
   303  3.0200000000000D+00  0.0000000000000D+00  0.0000000000000D+00
   304  3.0300000000000D+00  0.0000000000000D+00  0.0000000000000D+00
   305  3.0400000000000D+00  0.0000000000000D+00  0.0000000000000D+00
   306  3.0500000000000D+00  0.0000000000000D+00  0.0000000000000D+00
   307  3.0600000000000D+00  0.0000000000000D+00  0.0000000000000D+00
   308  3.0700000000000D+00  0.0000000000000D+00  0.0000000000000D+00
   309  3.0800000000000D+00  0.0000000000000D+00  0.0000000000000D+00
   310  3.0900000000000D+00  0.0000000000000D+00  0.0000000000000D+00
   311  3.1000000000000D+00  0.0000000000000D+00  0.0000000000000D+00
   312  3.1100000000000D+00  0.0000000000000D+00  0.0000000000000D+00
   313  3.1200000000000D+00  0.0000000000000D+00  0.0000000000000D+00
   314  3.1300000000000D+00  0.0000000000000D+00  0.0000000000000D+00
   315  3.1400000000000D+00  0.0000000000000D+00  0.0000000000000D+00
   316  3.1500000000000D+00  0.0000000000000D+00  0.0000000000000D+00
   317  3.1600000000000D+00  0.0000000000000D+00  0.0000000000000D+00
   318  3.1700000000000D+00  0.0000000000000D+00  0.0000000000000D+00
   319  3.1800000000000D+00  0.0000000000000D+00  0.0000000000000D+00
   320  3.1900000000000D+00  0.0000000000000D+00  0.0000000000000D+00
   321  3.2000000000000D+00  0.0000000000000D+00  0.0000000000000D+00
   322  3.2100000000000D+00  0.0000000000000D+00  0.0000000000000D+00
   323  3.2200000000000D+00  0.0000000000000D+00  0.0000000000000D+00
   324  3.2300000000000D+00  0.0000000000000D+00  0.0000000000000D+00
   325  3.2400000000000D+00  0.0000000000000D+00  0.0000000000000D+00
   326  3.2500000000000D+00  0.0000000000000D+00  0.0000000000000D+00
   327  3.2600000000000D+00  0.0000000000000D+00  0.0000000000000D+00
   328  3.2700000000000D+00  0.0000000000000D+00  0.0000000000000D+00
   329  3.2800000000000D+00  0.0000000000000D+00  0.0000000000000D+00
   330  3.2900000000000D+00  0.0000000000000D+00  0.0000000000000D+00
   331  3.3000000000000D+00  0.0000000000000D+00  0.0000000000000D+00
   332  3.3100000000000D+00  0.0000000000000D+00  0.0000000000000D+00
   333  3.3200000000000D+00  0.0000000000000D+00  0.0000000000000D+00
   334  3.3300000000000D+00  0.0000000000000D+00  0.0000000000000D+00
   335  3.3400000000000D+00  0.0000000000000D+00  0.0000000000000D+00
   336  3.3500000000000D+00  0.0000000000000D+00  0.0000000000000D+00
   337  3.3600000000000D+00  0.0000000000000D+00  0.0000000000000D+00
   338  3.3700000000000D+00  0.0000000000000D+00  0.0000000000000D+00
   339  3.3800000000000D+00  0.0000000000000D+00  0.0000000000000D+00
   340  3.3900000000000D+00  0.0000000000000D+00  0.0000000000000D+00
   341  3.4000000000000D+00  0.0000000000000D+00  0.0000000000000D+00
   342  3.4100000000000D+00  0.0000000000000D+00  0.0000000000000D+00
   343  3.4200000000000D+00  0.0000000000000D+00  0.0000000000000D+00
   344  3.4300000000000D+00  0.0000000000000D+00  0.0000000000000D+00
   345  3.4400000000000D+00  0.0000000000000D+00  0.0000000000000D+00
   346  3.4500000000000D+00  0.0000000000000D+00  0.0000000000000D+00
   347  3.4600000000000D+00  0.0000000000000D+00  0.0000000000000D+00
   348  3.4700000000000D+00  0.0000000000000D+00  0.0000000000000D+00
   349  3.4800000000000D+00  0.0000000000000D+00  0.0000000000000D+00
   350  3.4900000000000D+00  0.0000000000000D+00  0.0000000000000D+00
   351  3.5000000000000D+00  0.0000000000000D+00  0.0000000000000D+00
   352  3.5100000000000D+00  0.0000000000000D+00  0.0000000000000D+00
   353  3.5200000000000D+00  0.0000000000000D+00  0.0000000000000D+00
   354  3.5300000000000D+00  0.0000000000000D+00  0.0000000000000D+00
   355  3.5400000000000D+00  0.0000000000000D+00  0.0000000000000D+00
   356  3.5500000000000D+00  0.0000000000000D+00  0.0000000000000D+00
   357  3.5600000000000D+00  0.0000000000000D+00  0.0000000000000D+00
   358  3.5700000000000D+00  0.0000000000000D+00  0.0000000000000D+00
   359  3.5800000000000D+00  0.0000000000000D+00  0.0000000000000D+00
   360  3.5900000000000D+00  0.0000000000000D+00  0.0000000000000D+00
   361  3.6000000000000D+00  0.0000000000000D+00  0.0000000000000D+00
   362  3.6100000000000D+00  0.0000000000000D+00  0.0000000000000D+00
   363  3.6200000000000D+00  0.0000000000000D+00  0.0000000000000D+00
   364  3.6300000000000D+00  0.0000000000000D+00  0.0000000000000D+00
   365  3.6400000000000D+00  0.0000000000000D+00  0.0000000000000D+00
   366  3.6500000000000D+00  0.0000000000000D+00  0.0000000000000D+00
   367  3.6600000000000D+00  0.0000000000000D+00  0.0000000000000D+00
   368  3.6700000000000D+00  0.0000000000000D+00  0.0000000000000D+00
   369  3.6800000000000D+00  0.0000000000000D+00  0.0000000000000D+00
   370  3.6900000000000D+00  0.0000000000000D+00  0.0000000000000D+00
   371  3.7000000000000D+00  0.0000000000000D+00  0.0000000000000D+00
   372  3.7100000000000D+00  0.0000000000000D+00  0.0000000000000D+00
   373  3.7200000000000D+00  0.0000000000000D+00  0.0000000000000D+00
   374  3.7300000000000D+00  0.0000000000000D+00  0.0000000000000D+00
   375  3.7400000000000D+00  0.0000000000000D+00  0.0000000000000D+00
   376  3.7500000000000D+00  0.0000000000000D+00  0.0000000000000D+00
   377  3.7600000000000D+00  0.0000000000000D+00  0.0000000000000D+00
   378  3.7700000000000D+00  0.0000000000000D+00  0.0000000000000D+00
   379  3.7800000000000D+00  0.0000000000000D+00  0.0000000000000D+00
   380  3.7900000000000D+00  0.0000000000000D+00  0.0000000000000D+00
   381  3.8000000000000D+00  0.0000000000000D+00  0.0000000000000D+00
   382  3.8100000000000D+00  0.0000000000000D+00  0.0000000000000D+00
   383  3.8200000000000D+00  0.0000000000000D+00  0.0000000000000D+00
   384  3.8300000000000D+00  0.0000000000000D+00  0.0000000000000D+00
   385  3.8400000000000D+00  0.0000000000000D+00  0.0000000000000D+00
   386  3.8500000000000D+00  0.0000000000000D+00  0.0000000000000D+00
   387  3.8600000000000D+00  0.0000000000000D+00  0.0000000000000D+00
   388  3.8700000000000D+00  0.0000000000000D+00  0.0000000000000D+00
   389  3.8800000000000D+00  0.0000000000000D+00  0.0000000000000D+00
   390  3.8900000000000D+00  0.0000000000000D+00  0.0000000000000D+00
   391  3.9000000000000D+00  0.0000000000000D+00  0.0000000000000D+00
   392  3.9100000000000D+00  0.0000000000000D+00  0.0000000000000D+00
   393  3.9200000000000D+00  0.0000000000000D+00  0.0000000000000D+00
   394  3.9300000000000D+00  0.0000000000000D+00  0.0000000000000D+00
   395  3.9400000000000D+00  0.0000000000000D+00  0.0000000000000D+00
   396  3.9500000000000D+00  0.0000000000000D+00  0.0000000000000D+00
   397  3.9600000000000D+00  0.0000000000000D+00  0.0000000000000D+00
   398  3.9700000000000D+00  0.0000000000000D+00  0.0000000000000D+00
   399  3.9800000000000D+00  0.0000000000000D+00  0.0000000000000D+00
   400  3.9900000000000D+00  0.0000000000000D+00  0.0000000000000D+00
   401  4.0000000000000D+00  0.0000000000000D+00  0.0000000000000D+00
   402  4.0100000000000D+00  0.0000000000000D+00  0.0000000000000D+00
   403  4.0200000000000D+00  0.0000000000000D+00  0.0000000000000D+00
   404  4.0300000000000D+00  0.0000000000000D+00  0.0000000000000D+00
   405  4.0400000000000D+00  0.0000000000000D+00  0.0000000000000D+00
   406  4.0500000000000D+00  0.0000000000000D+00  0.0000000000000D+00
   407  4.0600000000000D+00  0.0000000000000D+00  0.0000000000000D+00
   408  4.0700000000000D+00  0.0000000000000D+00  0.0000000000000D+00
   409  4.0800000000000D+00  0.0000000000000D+00  0.0000000000000D+00
   410  4.0900000000000D+00  0.0000000000000D+00  0.0000000000000D+00
   411  4.1000000000000D+00  0.0000000000000D+00  0.0000000000000D+00
   412  4.1100000000000D+00  0.0000000000000D+00  0.0000000000000D+00
   413  4.1200000000000D+00  0.0000000000000D+00  0.0000000000000D+00
   414  4.1300000000000D+00  0.0000000000000D+00  0.0000000000000D+00
   415  4.1400000000000D+00  0.0000000000000D+00  0.0000000000000D+00
   416  4.1500000000000D+00  0.0000000000000D+00  0.0000000000000D+00
   417  4.1600000000000D+00  0.0000000000000D+00  0.0000000000000D+00
   418  4.1700000000000D+00  0.0000000000000D+00  0.0000000000000D+00
   419  4.1800000000000D+00  0.0000000000000D+00  0.0000000000000D+00
   420  4.1900000000000D+00  0.0000000000000D+00  0.0000000000000D+00
   421  4.2000000000000D+00  0.0000000000000D+00  0.0000000000000D+00
   422  4.2100000000000D+00  0.0000000000000D+00  0.0000000000000D+00