Zn    ONCVPSP-3.3.0  r_core=   1.35823   1.66358   1.85211
     30.0000     20.0000      220117    zatom,zion,pspd
     8      11   2     4   600     0    pspcod,pspxc,lmax,lloc,mmax,r2well
  5.99000000  0.00000000  0.00000000    rchrg fchrg qchrg
     2     2     2     0     0    nproj
     1     1           extension_switch
   0                         2.8276426034687D+00 -1.5327635194777D+00
     1  0.0000000000000D+00  7.6764091749837D-09  6.1748609003764D-10
     2  1.0000000000000D-02  8.8160051750633D-02  3.0643795208301D-02
     3  2.0000000000000D-02  1.7610782687527D-01  6.1302156710478D-02
     4  3.0000000000000D-02  2.6362900497454D-01  9.1989207665913D-02
     5  4.0000000000000D-02  3.5050525759225D-01  1.2271819270189D-01
     6  5.0000000000000D-02  4.3651244087267D-01  1.5350105782631D-01
     7  6.0000000000000D-02  5.2141901857916D-01  1.8434805290071D-01
     8  7.0000000000000D-02  6.0498478297091D-01  2.1526736344801D-01
     9  8.0000000000000D-02  6.8695993335798D-01  2.4626477795156D-01
    10  9.0000000000000D-02  7.6708456290997D-01  2.7734339605727D-01
    11  1.0000000000000D-01  8.4508859370204D-01  3.0850338223419D-01
    12  1.1000000000000D-01  9.2069218829727D-01  3.3974176850174D-01
    13  1.2000000000000D-01  9.9360665366923D-01  3.7105230881406D-01
    14  1.3000000000000D-01  1.0635358402617D+00  4.0242538662761D-01
    15  1.4000000000000D-01  1.1301780257802D+00  4.3384797609052D-01
    16  1.5000000000000D-01  1.1932282602313D+00  4.6530365620640D-01
    17  1.6000000000000D-01  1.2523811360877D+00  4.9677267626530D-01
    18  1.7000000000000D-01  1.3073339355696D+00  5.2823206982447D-01
    19  1.8000000000000D-01  1.3577900961908D+00  5.5965581358397D-01
    20  1.9000000000000D-01  1.4034629261799D+00  5.9101502665783D-01
    21  2.0000000000000D-01  1.4440794934084D+00  6.2227820500956D-01
    22  2.1000000000000D-01  1.4793846052216D+00  6.5341148521662D-01
    23  2.2000000000000D-01  1.5091447922577D+00  6.8437893126629D-01
    24  2.3000000000000D-01  1.5331522070526D+00  7.1514283777375D-01
    25  2.4000000000000D-01  1.5512283480555D+00  7.4566404285960D-01
    26  2.5000000000000D-01  1.5632275216215D+00  7.7590224393005D-01
    27  2.6000000000000D-01  1.5690399585948D+00  8.0581630976838D-01
    28  2.7000000000000D-01  1.5685945081532D+00  8.3536458266558D-01
    29  2.8000000000000D-01  1.5618608395374D+00  8.6450516478295D-01
    30  2.9000000000000D-01  1.5488510919591D+00  8.9319618353833D-01
    31  3.0000000000000D-01  1.5296209241585D+00  9.2139603152515D-01
    32  3.1000000000000D-01  1.5042699275115D+00  9.4906357729178D-01
    33  3.2000000000000D-01  1.4729413799970D+00  9.7615834420806D-01
    34  3.3000000000000D-01  1.4358213324059D+00  1.0026406556033D+00
    35  3.4000000000000D-01  1.3931370325944D+00  1.0284717453529D+00
    36  3.5000000000000D-01  1.3451547080160D+00  1.0536138340943D+00
    37  3.6000000000000D-01  1.2921767408698D+00  1.0780301722409D+00
    38  3.7000000000000D-01  1.2345382836525D+00  1.1016850519152D+00
    39  3.8000000000000D-01  1.1726033753790D+00  1.1245437908085D+00
    40  3.9000000000000D-01  1.1067606299366D+00  1.1465726917809D+00
    41  4.0000000000000D-01  1.0374185777040D+00  1.1677389827131D+00
    42  4.1000000000000D-01  9.6500074945383D-01  1.1880107417002D+00
    43  4.2000000000000D-01  8.8994059747095D-01  1.2073568131177D+00
    44  4.3000000000000D-01  8.1267635261501D-01  1.2257467203821D+00
    45  4.4000000000000D-01  7.3364591762461D-01  1.2431505813619D+00
    46  4.5000000000000D-01  6.5328189625381D-01  1.2595390323690D+00
    47  4.6000000000000D-01  5.7200685485296D-01  1.2748831664727D+00
    48  4.7000000000000D-01  4.9022890780723D-01  1.2891544915299D+00
    49  4.8000000000000D-01  4.0833771093674D-01  1.3023249128283D+00
    50  4.9000000000000D-01  3.2670093769606D-01  1.3143667445989D+00
    51  5.0000000000000D-01  2.4566130199833D-01  1.3252527538920D+00
    52  5.1000000000000D-01  1.6553417896681D-01  1.3349562394337D+00
    53  5.2000000000000D-01  8.6605861175327D-02  1.3434511471225D+00
    54  5.3000000000000D-01  9.1324732894678D-03  1.3507122227957D+00
    55  5.4000000000000D-01 -6.6660447194598D-02  1.3567152018278D+00
    56  5.5000000000000D-01 -1.4057771087011D-01  1.3614370340389D+00
    57  5.6000000000000D-01 -2.1245360202889D-01  1.3648561413203D+00
    58  5.7000000000000D-01 -2.8215040680737D-01  1.3669527043445D+00
    59  5.8000000000000D-01 -3.4955639563837D-01  1.3677089737584D+00
    60  5.9000000000000D-01 -4.1458332454664D-01  1.3671096003712D+00
    61  6.0000000000000D-01 -4.7716353107336D-01  1.3651419780724D+00
    62  6.1000000000000D-01 -5.3724671012003D-01  1.3617965925745D+00
    63  6.2000000000000D-01 -5.9479646246776D-01  1.3570673685779D+00
    64  6.3000000000000D-01 -6.4978671403472D-01  1.3509520076226D+00
    65  6.4000000000000D-01 -7.0219810686913D-01  1.3434523087351D+00
    66  6.5000000000000D-01 -7.5201446341313D-01  1.3345744639992D+00
    67  6.6000000000000D-01 -7.9921942362634D-01  1.3243293213875D+00
    68  6.7000000000000D-01 -8.4379335022197D-01  1.3127326075760D+00
    69  6.8000000000000D-01 -8.8571059054746D-01  1.2998051040306D+00
    70  6.9000000000000D-01 -9.2493717474097D-01  1.2855727703845D+00
    71  7.0000000000000D-01 -9.6142901884971D-01  1.2700668100100D+00
    72  7.1000000000000D-01 -9.9513068897649D-01  1.2533236737052D+00
    73  7.2000000000000D-01 -1.0259747682514D+00  1.2353849985535D+00
    74  7.3000000000000D-01 -1.0538818531562D+00  1.2162974802345D+00
    75  7.4000000000000D-01 -1.0787611895657D+00  1.1961126783588D+00
    76  7.5000000000000D-01 -1.1005119422798D+00  1.1748867557221D+00
    77  7.6000000000000D-01 -1.1190250752500D+00  1.1526801537109D+00
    78  7.7000000000000D-01 -1.1341858033990D+00  1.1295572074048D+00
    79  7.8000000000000D-01 -1.1458765614278D+00  1.1055857051859D+00
    80  7.9000000000000D-01 -1.1539804206261D+00  1.0808363988454D+00
    81  8.0000000000000D-01 -1.1583848717696D+00  1.0553824712589D+00
    82  8.1000000000000D-01 -1.1589858810802D+00  1.0292989696459D+00
    83  8.2000000000000D-01 -1.1556921171920D+00  1.0026622132232D+00
    84  8.3000000000000D-01 -1.1484292403668D+00  9.7554918468002D-01
    85  8.4000000000000D-01 -1.1371441410143D+00  9.4803691533888D-01
    86  8.5000000000000D-01 -1.1218090130305D+00  9.2020187409480D-01
    87  8.6000000000000D-01 -1.1024251486479D+00  8.9211937025483D-01
    88  8.7000000000000D-01 -1.0790263453909D+00  8.6386298021648D-01
    89  8.8000000000000D-01 -1.0516818223112D+00  8.3550400753484D-01
    90  8.9000000000000D-01 -1.0204985518050D+00  8.0711098533860D-01
    91  9.0000000000000D-01 -9.8562292482928D-01  7.7874922927754D-01
    92  9.1000000000000D-01 -9.4724168098440D-01  7.5048044823219D-01
    93  9.2000000000000D-01 -9.0558205044250D-01  7.2236241891095D-01
    94  9.3000000000000D-01 -8.6091107173408D-01  6.9444872922325D-01
    95  9.4000000000000D-01 -8.1353406759034D-01  6.6678859397533D-01
    96  9.5000000000000D-01 -7.6379227997201D-01  6.3942674501692D-01
    97  9.6000000000000D-01 -7.1205968464226D-01  6.1240339650398D-01
    98  9.7000000000000D-01 -6.5873902496002D-01  5.8575428444877D-01
    99  9.8000000000000D-01 -6.0425712275895D-01  5.5951077829693D-01
   100  9.9000000000000D-01 -5.4905954222182D-01  5.3370006082223D-01
   101  1.0000000000000D+00 -4.9360469865403D-01  5.0834537130987D-01
   102  1.0100000000000D+00 -4.3835751847791D-01  4.8346630577303D-01
   103  1.0200000000000D+00 -3.8378276909069D-01  4.5907916685123D-01
   104  1.0300000000000D+00 -3.3033818707615D-01  4.3519735510681D-01
   105  1.0400000000000D+00 -2.7846754032241D-01  4.1183179267756D-01
   106  1.0500000000000D+00 -2.2859376387290D-01  3.8899136970653D-01
   107  1.0600000000000D+00 -1.8111231071719D-01  3.6668340357666D-01
   108  1.0700000000000D+00 -1.3638485662221D-01  3.4491410088010D-01
   109  1.0800000000000D+00 -9.4733493440544D-02  3.2368901210704D-01
   110  1.0900000000000D+00 -5.6435536220196D-02  3.0301346940049D-01
   111  1.1000000000000D+00 -2.1719061138301D-02  2.8289299809182D-01
   112  1.1100000000000D+00  9.2407251984344D-03  2.6333369358662D-01
   113  1.1200000000000D+00  3.6324198385969D-02  2.4434255594791D-01
   114  1.1300000000000D+00  5.9469044207686D-02  2.2592777569035D-01
   115  1.1400000000000D+00  7.8670951811326D-02  2.0809896527910D-01
   116  1.1500000000000D+00  9.3983245751883D-02  1.9086733228474D-01
   117  1.1600000000000D+00  1.0551545156729D-01  1.7424579147065D-01
   118  1.1700000000000D+00  1.1343081355222D-01  1.5824901463037D-01
   119  1.1800000000000D+00  1.1794279933611D-01  1.4289341801792D-01
   120  1.1900000000000D+00  1.1931065528994D-01  1.2819708915254D-01
   121  1.2000000000000D+00  1.1783409339800D-01  1.1417965591053D-01
   122  1.2100000000000D+00  1.1384720898199D-01  1.0086210210091D-01
   123  1.2200000000000D+00  1.0771174421750D-01  8.8266534784226D-02
   124  1.2300000000000D+00  9.9809832623290D-02  7.6415910048065D-02
   125  1.2400000000000D+00  9.0536366679422D-02  6.5333724525993D-02
   126  1.2500000000000D+00  8.0291139084272D-02  5.5043680518000D-02
   127  1.2600000000000D+00  6.9470920753972D-02  4.5569333644920D-02
   128  1.2700000000000D+00  5.8461636117635D-02  3.6933732138734D-02
   129  1.2800000000000D+00  4.7630776538821D-02  2.9159053901059D-02
   130  1.2900000000000D+00  3.7320291823835D-02  2.2266260892636D-02
   131  1.3000000000000D+00  2.7839768134107D-02  1.6274737442336D-02
   132  1.3100000000000D+00  1.9461223886097D-02  1.1202068667655D-02
   133  1.3200000000000D+00  1.2417458690580D-02  7.0663218649777D-03
   134  1.3300000000000D+00  6.8524931370794D-03  3.8612585701629D-03
   135  1.3400000000000D+00  2.9419522968791D-03  1.6270700162376D-03
   136  1.3500000000000D+00  8.4273937883186D-04  4.2138817526458D-04
   137  1.3600000000000D+00  9.2775052763631D-05 -2.3047797082647D-08
   138  1.3700000000000D+00 -2.1221670550728D-05 -2.7635705033558D-05
   139  1.3800000000000D+00  1.4848635767046D-05  1.4454259767400D-05
   140  1.3900000000000D+00  3.0475051430876D-06  2.6926069805027D-06
   141  1.4000000000000D+00 -2.2552405034522D-06 -2.6419646680734D-06
   142  1.4100000000000D+00 -2.1681988141420D-07 -4.7163183678211D-08
   143  1.4200000000000D+00 -3.3403666611155D-07 -7.2660461468383D-08
   144  1.4300000000000D+00  0.0000000000000D+00  0.0000000000000D+00
   145  1.4400000000000D+00  0.0000000000000D+00  0.0000000000000D+00
   146  1.4500000000000D+00  0.0000000000000D+00  0.0000000000000D+00
   147  1.4600000000000D+00  0.0000000000000D+00  0.0000000000000D+00
   148  1.4700000000000D+00  0.0000000000000D+00  0.0000000000000D+00
   149  1.4800000000000D+00  0.0000000000000D+00  0.0000000000000D+00
   150  1.4900000000000D+00  0.0000000000000D+00  0.0000000000000D+00
   151  1.5000000000000D+00  0.0000000000000D+00  0.0000000000000D+00
   152  1.5100000000000D+00  0.0000000000000D+00  0.0000000000000D+00
   153  1.5200000000000D+00  0.0000000000000D+00  0.0000000000000D+00
   154  1.5300000000000D+00  0.0000000000000D+00  0.0000000000000D+00
   155  1.5400000000000D+00  0.0000000000000D+00  0.0000000000000D+00
   156  1.5500000000000D+00  0.0000000000000D+00  0.0000000000000D+00
   157  1.5600000000000D+00  0.0000000000000D+00  0.0000000000000D+00
   158  1.5700000000000D+00  0.0000000000000D+00  0.0000000000000D+00
   159  1.5800000000000D+00  0.0000000000000D+00  0.0000000000000D+00
   160  1.5900000000000D+00  0.0000000000000D+00  0.0000000000000D+00
   161  1.6000000000000D+00  0.0000000000000D+00  0.0000000000000D+00
   162  1.6100000000000D+00  0.0000000000000D+00  0.0000000000000D+00
   163  1.6200000000000D+00  0.0000000000000D+00  0.0000000000000D+00
   164  1.6300000000000D+00  0.0000000000000D+00  0.0000000000000D+00
   165  1.6400000000000D+00  0.0000000000000D+00  0.0000000000000D+00
   166  1.6500000000000D+00  0.0000000000000D+00  0.0000000000000D+00
   167  1.6600000000000D+00  0.0000000000000D+00  0.0000000000000D+00
   168  1.6700000000000D+00  0.0000000000000D+00  0.0000000000000D+00
   169  1.6800000000000D+00  0.0000000000000D+00  0.0000000000000D+00
   170  1.6900000000000D+00  0.0000000000000D+00  0.0000000000000D+00
   171  1.7000000000000D+00  0.0000000000000D+00  0.0000000000000D+00
   172  1.7100000000000D+00  0.0000000000000D+00  0.0000000000000D+00
   173  1.7200000000000D+00  0.0000000000000D+00  0.0000000000000D+00
   174  1.7300000000000D+00  0.0000000000000D+00  0.0000000000000D+00
   175  1.7400000000000D+00  0.0000000000000D+00  0.0000000000000D+00
   176  1.7500000000000D+00  0.0000000000000D+00  0.0000000000000D+00
   177  1.7600000000000D+00  0.0000000000000D+00  0.0000000000000D+00
   178  1.7700000000000D+00  0.0000000000000D+00  0.0000000000000D+00
   179  1.7800000000000D+00  0.0000000000000D+00  0.0000000000000D+00
   180  1.7900000000000D+00  0.0000000000000D+00  0.0000000000000D+00
   181  1.8000000000000D+00  0.0000000000000D+00  0.0000000000000D+00
   182  1.8100000000000D+00  0.0000000000000D+00  0.0000000000000D+00
   183  1.8200000000000D+00  0.0000000000000D+00  0.0000000000000D+00
   184  1.8300000000000D+00  0.0000000000000D+00  0.0000000000000D+00
   185  1.8400000000000D+00  0.0000000000000D+00  0.0000000000000D+00
   186  1.8500000000000D+00  0.0000000000000D+00  0.0000000000000D+00
   187  1.8600000000000D+00  0.0000000000000D+00  0.0000000000000D+00
   188  1.8700000000000D+00  0.0000000000000D+00  0.0000000000000D+00
   189  1.8800000000000D+00  0.0000000000000D+00  0.0000000000000D+00
   190  1.8900000000000D+00  0.0000000000000D+00  0.0000000000000D+00
   191  1.9000000000000D+00  0.0000000000000D+00  0.0000000000000D+00
   192  1.9100000000000D+00  0.0000000000000D+00  0.0000000000000D+00
   193  1.9200000000000D+00  0.0000000000000D+00  0.0000000000000D+00
   194  1.9300000000000D+00  0.0000000000000D+00  0.0000000000000D+00
   195  1.9400000000000D+00  0.0000000000000D+00  0.0000000000000D+00
   196  1.9500000000000D+00  0.0000000000000D+00  0.0000000000000D+00
   197  1.9600000000000D+00  0.0000000000000D+00  0.0000000000000D+00
   198  1.9700000000000D+00  0.0000000000000D+00  0.0000000000000D+00
   199  1.9800000000000D+00  0.0000000000000D+00  0.0000000000000D+00
   200  1.9900000000000D+00  0.0000000000000D+00  0.0000000000000D+00
   201  2.0000000000000D+00  0.0000000000000D+00  0.0000000000000D+00
   202  2.0100000000000D+00  0.0000000000000D+00  0.0000000000000D+00
   203  2.0200000000000D+00  0.0000000000000D+00  0.0000000000000D+00
   204  2.0300000000000D+00  0.0000000000000D+00  0.0000000000000D+00
   205  2.0400000000000D+00  0.0000000000000D+00  0.0000000000000D+00
   206  2.0500000000000D+00  0.0000000000000D+00  0.0000000000000D+00
   207  2.0600000000000D+00  0.0000000000000D+00  0.0000000000000D+00
   208  2.0700000000000D+00  0.0000000000000D+00  0.0000000000000D+00
   209  2.0800000000000D+00  0.0000000000000D+00  0.0000000000000D+00
   210  2.0900000000000D+00  0.0000000000000D+00  0.0000000000000D+00
   211  2.1000000000000D+00  0.0000000000000D+00  0.0000000000000D+00
   212  2.1100000000000D+00  0.0000000000000D+00  0.0000000000000D+00
   213  2.1200000000000D+00  0.0000000000000D+00  0.0000000000000D+00
   214  2.1300000000000D+00  0.0000000000000D+00  0.0000000000000D+00
   215  2.1400000000000D+00  0.0000000000000D+00  0.0000000000000D+00
   216  2.1500000000000D+00  0.0000000000000D+00  0.0000000000000D+00
   217  2.1600000000000D+00  0.0000000000000D+00  0.0000000000000D+00
   218  2.1700000000000D+00  0.0000000000000D+00  0.0000000000000D+00
   219  2.1800000000000D+00  0.0000000000000D+00  0.0000000000000D+00
   220  2.1900000000000D+00  0.0000000000000D+00  0.0000000000000D+00
   221  2.2000000000000D+00  0.0000000000000D+00  0.0000000000000D+00
   222  2.2100000000000D+00  0.0000000000000D+00  0.0000000000000D+00
   223  2.2200000000000D+00  0.0000000000000D+00  0.0000000000000D+00
   224  2.2300000000000D+00  0.0000000000000D+00  0.0000000000000D+00
   225  2.2400000000000D+00  0.0000000000000D+00  0.0000000000000D+00
   226  2.2500000000000D+00  0.0000000000000D+00  0.0000000000000D+00
   227  2.2600000000000D+00  0.0000000000000D+00  0.0000000000000D+00
   228  2.2700000000000D+00  0.0000000000000D+00  0.0000000000000D+00
   229  2.2800000000000D+00  0.0000000000000D+00  0.0000000000000D+00
   230  2.2900000000000D+00  0.0000000000000D+00  0.0000000000000D+00
   231  2.3000000000000D+00  0.0000000000000D+00  0.0000000000000D+00
   232  2.3100000000000D+00  0.0000000000000D+00  0.0000000000000D+00
   233  2.3200000000000D+00  0.0000000000000D+00  0.0000000000000D+00
   234  2.3300000000000D+00  0.0000000000000D+00  0.0000000000000D+00
   235  2.3400000000000D+00  0.0000000000000D+00  0.0000000000000D+00
   236  2.3500000000000D+00  0.0000000000000D+00  0.0000000000000D+00
   237  2.3600000000000D+00  0.0000000000000D+00  0.0000000000000D+00
   238  2.3700000000000D+00  0.0000000000000D+00  0.0000000000000D+00
   239  2.3800000000000D+00  0.0000000000000D+00  0.0000000000000D+00
   240  2.3900000000000D+00  0.0000000000000D+00  0.0000000000000D+00
   241  2.4000000000000D+00  0.0000000000000D+00  0.0000000000000D+00
   242  2.4100000000000D+00  0.0000000000000D+00  0.0000000000000D+00
   243  2.4200000000000D+00  0.0000000000000D+00  0.0000000000000D+00
   244  2.4300000000000D+00  0.0000000000000D+00  0.0000000000000D+00
   245  2.4400000000000D+00  0.0000000000000D+00  0.0000000000000D+00
   246  2.4500000000000D+00  0.0000000000000D+00  0.0000000000000D+00
   247  2.4600000000000D+00  0.0000000000000D+00  0.0000000000000D+00
   248  2.4700000000000D+00  0.0000000000000D+00  0.0000000000000D+00
   249  2.4800000000000D+00  0.0000000000000D+00  0.0000000000000D+00
   250  2.4900000000000D+00  0.0000000000000D+00  0.0000000000000D+00
   251  2.5000000000000D+00  0.0000000000000D+00  0.0000000000000D+00
   252  2.5100000000000D+00  0.0000000000000D+00  0.0000000000000D+00
   253  2.5200000000000D+00  0.0000000000000D+00  0.0000000000000D+00
   254  2.5300000000000D+00  0.0000000000000D+00  0.0000000000000D+00
   255  2.5400000000000D+00  0.0000000000000D+00  0.0000000000000D+00
   256  2.5500000000000D+00  0.0000000000000D+00  0.0000000000000D+00
   257  2.5600000000000D+00  0.0000000000000D+00  0.0000000000000D+00
   258  2.5700000000000D+00  0.0000000000000D+00  0.0000000000000D+00
   259  2.5800000000000D+00  0.0000000000000D+00  0.0000000000000D+00
   260  2.5900000000000D+00  0.0000000000000D+00  0.0000000000000D+00
   261  2.6000000000000D+00  0.0000000000000D+00  0.0000000000000D+00
   262  2.6100000000000D+00  0.0000000000000D+00  0.0000000000000D+00
   263  2.6200000000000D+00  0.0000000000000D+00  0.0000000000000D+00
   264  2.6300000000000D+00  0.0000000000000D+00  0.0000000000000D+00
   265  2.6400000000000D+00  0.0000000000000D+00  0.0000000000000D+00
   266  2.6500000000000D+00  0.0000000000000D+00  0.0000000000000D+00
   267  2.6600000000000D+00  0.0000000000000D+00  0.0000000000000D+00
   268  2.6700000000000D+00  0.0000000000000D+00  0.0000000000000D+00
   269  2.6800000000000D+00  0.0000000000000D+00  0.0000000000000D+00
   270  2.6900000000000D+00  0.0000000000000D+00  0.0000000000000D+00
   271  2.7000000000000D+00  0.0000000000000D+00  0.0000000000000D+00
   272  2.7100000000000D+00  0.0000000000000D+00  0.0000000000000D+00
   273  2.7200000000000D+00  0.0000000000000D+00  0.0000000000000D+00
   274  2.7300000000000D+00  0.0000000000000D+00  0.0000000000000D+00
   275  2.7400000000000D+00  0.0000000000000D+00  0.0000000000000D+00
   276  2.7500000000000D+00  0.0000000000000D+00  0.0000000000000D+00
   277  2.7600000000000D+00  0.0000000000000D+00  0.0000000000000D+00
   278  2.7700000000000D+00  0.0000000000000D+00  0.0000000000000D+00
   279  2.7800000000000D+00  0.0000000000000D+00  0.0000000000000D+00
   280  2.7900000000000D+00  0.0000000000000D+00  0.0000000000000D+00
   281  2.8000000000000D+00  0.0000000000000D+00  0.0000000000000D+00
   282  2.8100000000000D+00  0.0000000000000D+00  0.0000000000000D+00
   283  2.8200000000000D+00  0.0000000000000D+00  0.0000000000000D+00
   284  2.8300000000000D+00  0.0000000000000D+00  0.0000000000000D+00
   285  2.8400000000000D+00  0.0000000000000D+00  0.0000000000000D+00
   286  2.8500000000000D+00  0.0000000000000D+00  0.0000000000000D+00
   287  2.8600000000000D+00  0.0000000000000D+00  0.0000000000000D+00
   288  2.8700000000000D+00  0.0000000000000D+00  0.0000000000000D+00
   289  2.8800000000000D+00  0.0000000000000D+00  0.0000000000000D+00
   290  2.8900000000000D+00  0.0000000000000D+00  0.0000000000000D+00
   291  2.9000000000000D+00  0.0000000000000D+00  0.0000000000000D+00
   292  2.9100000000000D+00  0.0000000000000D+00  0.0000000000000D+00
   293  2.9200000000000D+00  0.0000000000000D+00  0.0000000000000D+00
   294  2.9300000000000D+00  0.0000000000000D+00  0.0000000000000D+00
   295  2.9400000000000D+00  0.0000000000000D+00  0.0000000000000D+00
   296  2.9500000000000D+00  0.0000000000000D+00  0.0000000000000D+00
   297  2.9600000000000D+00  0.0000000000000D+00  0.0000000000000D+00
   298  2.9700000000000D+00  0.0000000000000D+00  0.0000000000000D+00
   299  2.9800000000000D+00  0.0000000000000D+00  0.0000000000000D+00
   300  2.9900000000000D+00  0.0000000000000D+00  0.0000000000000D+00
   301  3.0000000000000D+00  0.0000000000000D+00  0.0000000000000D+00
   302  3.0100000000000D+00  0.0000000000000D+00  0.0000000000000D+00
   303  3.0200000000000D+00  0.0000000000000D+00  0.0000000000000D+00
   304  3.0300000000000D+00  0.0000000000000D+00  0.0000000000000D+00
   305  3.0400000000000D+00  0.0000000000000D+00  0.0000000000000D+00
   306  3.0500000000000D+00  0.0000000000000D+00  0.0000000000000D+00
   307  3.0600000000000D+00  0.0000000000000D+00  0.0000000000000D+00
   308  3.0700000000000D+00  0.0000000000000D+00  0.0000000000000D+00
   309  3.0800000000000D+00  0.0000000000000D+00  0.0000000000000D+00
   310  3.0900000000000D+00  0.0000000000000D+00  0.0000000000000D+00
   311  3.1000000000000D+00  0.0000000000000D+00  0.0000000000000D+00
   312  3.1100000000000D+00  0.0000000000000D+00  0.0000000000000D+00
   313  3.1200000000000D+00  0.0000000000000D+00  0.0000000000000D+00
   314  3.1300000000000D+00  0.0000000000000D+00  0.0000000000000D+00
   315  3.1400000000000D+00  0.0000000000000D+00  0.0000000000000D+00
   316  3.1500000000000D+00  0.0000000000000D+00  0.0000000000000D+00
   317  3.1600000000000D+00  0.0000000000000D+00  0.0000000000000D+00
   318  3.1700000000000D+00  0.0000000000000D+00  0.0000000000000D+00
   319  3.1800000000000D+00  0.0000000000000D+00  0.0000000000000D+00
   320  3.1900000000000D+00  0.0000000000000D+00  0.0000000000000D+00
   321  3.2000000000000D+00  0.0000000000000D+00  0.0000000000000D+00
   322  3.2100000000000D+00  0.0000000000000D+00  0.0000000000000D+00
   323  3.2200000000000D+00  0.0000000000000D+00  0.0000000000000D+00
   324  3.2300000000000D+00  0.0000000000000D+00  0.0000000000000D+00
   325  3.2400000000000D+00  0.0000000000000D+00  0.0000000000000D+00
   326  3.2500000000000D+00  0.0000000000000D+00  0.0000000000000D+00
   327  3.2600000000000D+00  0.0000000000000D+00  0.0000000000000D+00
   328  3.2700000000000D+00  0.0000000000000D+00  0.0000000000000D+00
   329  3.2800000000000D+00  0.0000000000000D+00  0.0000000000000D+00
   330  3.2900000000000D+00  0.0000000000000D+00  0.0000000000000D+00
   331  3.3000000000000D+00  0.0000000000000D+00  0.0000000000000D+00
   332  3.3100000000000D+00  0.0000000000000D+00  0.0000000000000D+00
   333  3.3200000000000D+00  0.0000000000000D+00  0.0000000000000D+00
   334  3.3300000000000D+00  0.0000000000000D+00  0.0000000000000D+00
   335  3.3400000000000D+00  0.0000000000000D+00  0.0000000000000D+00
   336  3.3500000000000D+00  0.0000000000000D+00  0.0000000000000D+00
   337  3.3600000000000D+00  0.0000000000000D+00  0.0000000000000D+00
   338  3.3700000000000D+00  0.0000000000000D+00  0.0000000000000D+00
   339  3.3800000000000D+00  0.0000000000000D+00  0.0000000000000D+00
   340  3.3900000000000D+00  0.0000000000000D+00  0.0000000000000D+00
   341  3.4000000000000D+00  0.0000000000000D+00  0.0000000000000D+00
   342  3.4100000000000D+00  0.0000000000000D+00  0.0000000000000D+00
   343  3.4200000000000D+00  0.0000000000000D+00  0.0000000000000D+00
   344  3.4300000000000D+00  0.0000000000000D+00  0.0000000000000D+00
   345  3.4400000000000D+00  0.0000000000000D+00  0.0000000000000D+00
   346  3.4500000000000D+00  0.0000000000000D+00  0.0000000000000D+00
   347  3.4600000000000D+00  0.0000000000000D+00  0.0000000000000D+00
   348  3.4700000000000D+00  0.0000000000000D+00  0.0000000000000D+00
   349  3.4800000000000D+00  0.0000000000000D+00  0.0000000000000D+00
   350  3.4900000000000D+00  0.0000000000000D+00  0.0000000000000D+00
   351  3.5000000000000D+00  0.0000000000000D+00  0.0000000000000D+00
   352  3.5100000000000D+00  0.0000000000000D+00  0.0000000000000D+00
   353  3.5200000000000D+00  0.0000000000000D+00  0.0000000000000D+00
   354  3.5300000000000D+00  0.0000000000000D+00  0.0000000000000D+00
   355  3.5400000000000D+00  0.0000000000000D+00  0.0000000000000D+00
   356  3.5500000000000D+00  0.0000000000000D+00  0.0000000000000D+00
   357  3.5600000000000D+00  0.0000000000000D+00  0.0000000000000D+00
   358  3.5700000000000D+00  0.0000000000000D+00  0.0000000000000D+00
   359  3.5800000000000D+00  0.0000000000000D+00  0.0000000000000D+00
   360  3.5900000000000D+00  0.0000000000000D+00  0.0000000000000D+00
   361  3.6000000000000D+00  0.0000000000000D+00  0.0000000000000D+00
   362  3.6100000000000D+00  0.0000000000000D+00  0.0000000000000D+00
   363  3.6200000000000D+00  0.0000000000000D+00  0.0000000000000D+00
   364  3.6300000000000D+00  0.0000000000000D+00  0.0000000000000D+00
   365  3.6400000000000D+00  0.0000000000000D+00  0.0000000000000D+00
   366  3.6500000000000D+00  0.0000000000000D+00  0.0000000000000D+00
   367  3.6600000000000D+00  0.0000000000000D+00  0.0000000000000D+00
   368  3.6700000000000D+00  0.0000000000000D+00  0.0000000000000D+00
   369  3.6800000000000D+00  0.0000000000000D+00  0.0000000000000D+00
   370  3.6900000000000D+00  0.0000000000000D+00  0.0000000000000D+00
   371  3.7000000000000D+00  0.0000000000000D+00  0.0000000000000D+00
   372  3.7100000000000D+00  0.0000000000000D+00  0.0000000000000D+00
   373  3.7200000000000D+00  0.0000000000000D+00  0.0000000000000D+00
   374  3.7300000000000D+00  0.0000000000000D+00  0.0000000000000D+00
   375  3.7400000000000D+00  0.0000000000000D+00  0.0000000000000D+00
   376  3.7500000000000D+00  0.0000000000000D+00  0.0000000000000D+00
   377  3.7600000000000D+00  0.0000000000000D+00  0.0000000000000D+00
   378  3.7700000000000D+00  0.0000000000000D+00  0.0000000000000D+00
   379  3.7800000000000D+00  0.0000000000000D+00  0.0000000000000D+00
   380  3.7900000000000D+00  0.0000000000000D+00  0.0000000000000D+00
   381  3.8000000000000D+00  0.0000000000000D+00  0.0000000000000D+00
   382  3.8100000000000D+00  0.0000000000000D+00  0.0000000000000D+00
   383  3.8200000000000D+00  0.0000000000000D+00  0.0000000000000D+00
   384  3.8300000000000D+00  0.0000000000000D+00  0.0000000000000D+00
   385  3.8400000000000D+00  0.0000000000000D+00  0.0000000000000D+00
   386  3.8500000000000D+00  0.0000000000000D+00  0.0000000000000D+00
   387  3.8600000000000D+00  0.0000000000000D+00  0.0000000000000D+00
   388  3.8700000000000D+00  0.0000000000000D+00  0.0000000000000D+00
   389  3.8800000000000D+00  0.0000000000000D+00  0.0000000000000D+00
   390  3.8900000000000D+00  0.0000000000000D+00  0.0000000000000D+00
   391  3.9000000000000D+00  0.0000000000000D+00  0.0000000000000D+00
   392  3.9100000000000D+00  0.0000000000000D+00  0.0000000000000D+00
   393  3.9200000000000D+00  0.0000000000000D+00  0.0000000000000D+00
   394  3.9300000000000D+00  0.0000000000000D+00  0.0000000000000D+00
   395  3.9400000000000D+00  0.0000000000000D+00  0.0000000000000D+00
   396  3.9500000000000D+00  0.0000000000000D+00  0.0000000000000D+00
   397  3.9600000000000D+00  0.0000000000000D+00  0.0000000000000D+00
   398  3.9700000000000D+00  0.0000000000000D+00  0.0000000000000D+00
   399  3.9800000000000D+00  0.0000000000000D+00  0.0000000000000D+00
   400  3.9900000000000D+00  0.0000000000000D+00  0.0000000000000D+00
   401  4.0000000000000D+00  0.0000000000000D+00  0.0000000000000D+00
   402  4.0100000000000D+00  0.0000000000000D+00  0.0000000000000D+00
   403  4.0200000000000D+00  0.0000000000000D+00  0.0000000000000D+00
   404  4.0300000000000D+00  0.0000000000000D+00  0.0000000000000D+00
   405  4.0400000000000D+00  0.0000000000000D+00  0.0000000000000D+00
   406  4.0500000000000D+00  0.0000000000000D+00  0.0000000000000D+00
   407  4.0600000000000D+00  0.0000000000000D+00  0.0000000000000D+00
   408  4.0700000000000D+00  0.0000000000000D+00  0.0000000000000D+00
   409  4.0800000000000D+00  0.0000000000000D+00  0.0000000000000D+00
   410  4.0900000000000D+00  0.0000000000000D+00  0.0000000000000D+00
   411  4.1000000000000D+00  0.0000000000000D+00  0.0000000000000D+00
   412  4.1100000000000D+00  0.0000000000000D+00  0.0000000000000D+00
   413  4.1200000000000D+00  0.0000000000000D+00  0.0000000000000D+00
   414  4.1300000000000D+00  0.0000000000000D+00  0.0000000000000D+00
   415  4.1400000000000D+00  0.0000000000000D+00  0.0000000000000D+00
   416  4.1500000000000D+00  0.0000000000000D+00  0.0000000000000D+00
   417  4.1600000000000D+00  0.0000000000000D+00  0.0000000000000D+00
   418  4.1700000000000D+00  0.0000000000000D+00  0.0000000000000D+00
   419  4.1800000000000D+00  0.0000000000000D+00  0.0000000000000D+00
   420  4.1900000000000D+00  0.0000000000000D+00  0.0000000000000D+00
   421  4.2000000000000D+00  0.0000000000000D+00  0.0000000000000D+00
   422  4.2100000000000D+00  0.0000000000000D+00  0.0000000000000D+00