Zn    ONCVPSP-3.3.0  r_core=   2.21501   2.21501   1.91959
     30.0000     12.0000      220117    zatom,zion,pspd
     8      11   2     4   600     0    pspcod,pspxc,lmax,lloc,mmax,r2well
  5.99000000  0.00000000  0.00000000    rchrg fchrg qchrg
     2     2     2     0     0    nproj
     1     1           extension_switch
   0                         4.9942178863432D+00  1.1420861088488D+00
     1  0.0000000000000D+00  1.0359310631536D-11 -2.4872048864921D-11
     2  1.0000000000000D-02  3.5257285712922D-03  3.2849752348756D-02
     3  2.0000000000000D-02  7.1089775491185D-03  6.5576208644585D-02
     4  3.0000000000000D-02  1.0807037723389D-02  9.8056552416987D-02
     5  4.0000000000000D-02  1.4676741441733D-02  1.3016892458839D-01
     6  5.0000000000000D-02  1.8774235363179D-02  1.6179289774707D-01
     7  6.0000000000000D-02  2.3154755574307D-02  1.9280994512943D-01
     8  7.0000000000000D-02  2.7872405843230D-02  2.2310390257706D-01
     9  8.0000000000000D-02  3.2979939776406D-02  2.5256142175927D-01
    10  9.0000000000000D-02  3.8528547630357D-02  2.8107241298229D-01
    11  1.0000000000000D-01  4.4567648515044D-02  3.0853047594353D-01
    12  1.1000000000000D-01  5.1144688707775D-02  3.3483331683197D-01
    13  1.2000000000000D-01  5.8304946776347D-02  3.5988315022404D-01
    14  1.3000000000000D-01  6.6091346187560D-02  3.8358708427853D-01
    15  1.4000000000000D-01  7.4544276052479D-02  4.0585748779330D-01
    16  1.5000000000000D-01  8.3701420632807D-02  4.2661233775105D-01
    17  1.6000000000000D-01  9.3597598203714D-02  4.4577554605098D-01
    18  1.7000000000000D-01  1.0426460983735D-01  4.6327726419719D-01
    19  1.8000000000000D-01  1.1573109863834D-01  4.7905416479344D-01
    20  1.9000000000000D-01  1.2802241992772D-01  4.9304969877673D-01
    21  2.0000000000000D-01  1.4116052283532D-01  5.0521432740890D-01
    22  2.1000000000000D-01  1.5516384372263D-01  5.1550572813597D-01
    23  2.2000000000000D-01  1.7004721181844D-01  5.2388897351857D-01
    24  2.3000000000000D-01  1.8582176740893D-01  5.3033668253384D-01
    25  2.4000000000000D-01  2.0249489288178D-01  5.3482914364840D-01
    26  2.5000000000000D-01  2.2007015688054D-01  5.3735440916392D-01
    27  2.6000000000000D-01  2.3854727178168D-01  5.3790836044085D-01
    28  2.7000000000000D-01  2.5792206466185D-01  5.3649474371096D-01
    29  2.8000000000000D-01  2.7818646187724D-01  5.3312517629649D-01
    30  2.9000000000000D-01  2.9932848733101D-01  5.2781912316123D-01
    31  3.0000000000000D-01  3.2133227445848D-01  5.2060384382697D-01
    32  3.1000000000000D-01  3.4417809191319D-01  5.1151430979743D-01
    33  3.2000000000000D-01  3.6784238289019D-01  5.0059309273962D-01
    34  3.3000000000000D-01  3.9229781797678D-01  4.8789022378045D-01
    35  3.4000000000000D-01  4.1751336137436D-01  4.7346302438272D-01
    36  3.5000000000000D-01  4.4345435028944D-01  4.5737590937007D-01
    37  3.6000000000000D-01  4.7008258724673D-01  4.3970016277378D-01
    38  3.7000000000000D-01  4.9735644503244D-01  4.2051368727576D-01
    39  3.8000000000000D-01  5.2523098393263D-01  3.9990072812094D-01
    40  3.9000000000000D-01  5.5365808088868D-01  3.7795157246813D-01
    41  4.0000000000000D-01  5.8258657015060D-01  3.5476222524161D-01
    42  4.1000000000000D-01  6.1196239496876D-01  3.3043406263441D-01
    43  4.2000000000000D-01  6.4172876982614D-01  3.0507346450026D-01
    44  4.3000000000000D-01  6.7182635267590D-01  2.7879142695166D-01
    45  4.4000000000000D-01  7.0219342661419D-01  2.5170315655889D-01
    46  4.5000000000000D-01  7.3276609038412D-01  2.2392764761576D-01
    47  4.6000000000000D-01  7.6347845707584D-01  1.9558724400547D-01
    48  4.7000000000000D-01  7.9426286035819D-01  1.6680718726043D-01
    49  4.8000000000000D-01  8.2505006754989D-01  1.3771515246625D-01
    50  4.9000000000000D-01  8.5576949881387D-01  1.0844077370952D-01
    51  5.0000000000000D-01  8.8634945173559D-01  7.9115160812957D-02
    52  5.1000000000000D-01  9.1671733052623D-01  4.9870409138968D-02
    53  5.2000000000000D-01  9.4679987907446D-01  2.0839104273660D-02
    54  5.3000000000000D-01  9.7652341705547D-01 -7.8461765720535D-03
    55  5.4000000000000D-01  1.0058140782941D+00 -3.6053364589937D-02
    56  5.5000000000000D-01  1.0345980505697D+00 -6.3651398965175D-02
    57  5.6000000000000D-01  1.0628018160433D+00 -9.0510724160920D-02
    58  5.7000000000000D-01  1.0903523914852D+00 -1.1650378303020D-01
    59  5.8000000000000D-01  1.1171775674790D+00 -1.4150550389834D-01
    60  5.9000000000000D-01  1.1432061457810D+00 -1.6539377977608D-01
    61  6.0000000000000D-01  1.1683681740190D+00 -1.8804993788719D-01
    62  6.1000000000000D-01  1.1925951769215D+00 -2.0935919772508D-01
    63  6.2000000000000D-01  1.2158203832803D+00 -2.2921111589034D-01
    64  6.3000000000000D-01  1.2379789478625D+00 -2.4750001600542D-01
    65  6.4000000000000D-01  1.2590081675040D+00 -2.6412540205332D-01
    66  6.5000000000000D-01  1.2788476906355D+00 -2.7899235354455D-01
    67  6.6000000000000D-01  1.2974397195163D+00 -2.9201190098009D-01
    68  6.7000000000000D-01  1.3147292044717D+00 -3.0310138014745D-01
    69  6.8000000000000D-01  1.3306640294601D+00 -3.1218476386257D-01
    70  6.9000000000000D-01  1.3451951883248D+00 -3.1919296985113D-01
    71  7.0000000000000D-01  1.3582769511158D+00 -3.2406414354926D-01
    72  7.1000000000000D-01  1.3698670199030D+00 -3.2674391469456D-01
    73  7.2000000000000D-01  1.3799266735379D+00 -3.2718562667473D-01
    74  7.3000000000000D-01  1.3884209008590D+00 -3.2535053770118D-01
    75  7.4000000000000D-01  1.3953185218762D+00 -3.2120799297917D-01
    76  7.5000000000000D-01  1.4005922965132D+00 -3.1473556715443D-01
    77  7.6000000000000D-01  1.4042190205274D+00 -3.0591917642643D-01
    78  7.7000000000000D-01  1.4061796082759D+00 -2.9475315983325D-01
    79  7.8000000000000D-01  1.4064591620384D+00 -2.8124032932873D-01
    80  7.9000000000000D-01  1.4050470276597D+00 -2.6539198839104D-01
    81  8.0000000000000D-01  1.4019368363189D+00 -2.4722791902139D-01
    82  8.1000000000000D-01  1.3971265322847D+00 -2.2677633711222D-01
    83  8.2000000000000D-01  1.3906183865643D+00 -2.0407381628588D-01
    84  8.3000000000000D-01  1.3824189964053D+00 -1.7916518042561D-01
    85  8.4000000000000D-01  1.3725392706586D+00 -1.5210336524224D-01
    86  8.5000000000000D-01  1.3609944010619D+00 -1.2294924933958D-01
    87  8.6000000000000D-01  1.3478038195553D+00 -9.1771455360812D-02
    88  8.7000000000000D-01  1.3329911417871D+00 -5.8646121914635D-02
    89  8.8000000000000D-01  1.3165840970203D+00 -2.3656647095046D-02
    90  8.9000000000000D-01  1.2986144446995D+00  1.3106595479665D-02
    91  9.0000000000000D-01  1.2791178779816D+00  5.1546567074328D-02
    92  9.1000000000000D-01  1.2581339145872D+00  9.1559899551430D-02
    93  9.2000000000000D-01  1.2357057753681D+00  1.3303725515218D-01
    94  9.3000000000000D-01  1.2118802510362D+00  1.7586370900747D-01
    95  9.4000000000000D-01  1.1867075575378D+00  2.1991915295043D-01
    96  9.5000000000000D-01  1.1602411805995D+00  2.6507871911601D-01
    97  9.6000000000000D-01  1.1325377100108D+00  3.1121322173281D-01
    98  9.7000000000000D-01  1.1036566642442D+00  3.5818961543735D-01
    99  9.8000000000000D-01  1.0736603060486D+00  4.0587146837419D-01
   100  9.9000000000000D-01  1.0426134496835D+00  4.5411944828245D-01
   101  1.0000000000000D+00  1.0105832604909D+00  5.0279181971587D-01
   102  1.0100000000000D+00  9.7763904752867D-01  5.5174495049608D-01
   103  1.0200000000000D+00  9.4385205001334D-01  6.0083382545905D-01
   104  1.0300000000000D+00  9.0929521834029D-01  6.4991256552264D-01
   105  1.0400000000000D+00  8.7404299046979D-01  6.9883495007890D-01
   106  1.0500000000000D+00  8.3817106447963D-01  7.4745494069879D-01
   107  1.0600000000000D+00  8.0175616809982D-01  7.9562720412781D-01
   108  1.0700000000000D+00  7.6487582605213D-01  8.4320763255179D-01
   109  1.0800000000000D+00  7.2760812602384D-01  8.9005385911923D-01
   110  1.0900000000000D+00  6.9003148410692D-01  9.3602576672550D-01
   111  1.1000000000000D+00  6.5222441053430D-01  9.8098598808229D-01
   112  1.1100000000000D+00  6.1426527654009D-01  1.0248003951352D+00
   113  1.1200000000000D+00  5.7623208316435D-01  1.0673385759270D+00
   114  1.1300000000000D+00  5.3820223281116D-01  1.1084742970592D+00
   115  1.1400000000000D+00  5.0025230435810D-01  1.1480859499491D+00
   116  1.1500000000000D+00  4.6245783259696D-01  1.1860569791529D+00
   117  1.1600000000000D+00  4.2489309276639D-01  1.2222762910901D+00
   118  1.1700000000000D+00  3.8763089091225D-01  1.2566386415933D+00
   119  1.1800000000000D+00  3.5074236079385D-01  1.2890450007646D+00
   120  1.1900000000000D+00  3.1429676801814D-01  1.3194028937390D+00
   121  1.2000000000000D+00  2.7836132205573D-01  1.3476267160404D+00
   122  1.2100000000000D+00  2.4300099675889D-01  1.3736380223209D+00
   123  1.2200000000000D+00  2.0827835997507D-01  1.3973657873552D+00
   124  1.2300000000000D+00  1.7425341279754D-01  1.4187466383164D+00
   125  1.2400000000000D+00  1.4098343895424D-01  1.4377250574738D+00
   126  1.2500000000000D+00  1.0852286482385D-01  1.4542535544923D+00
   127  1.2600000000000D+00  7.6923130484514D-02  1.4682928077499D+00
   128  1.2700000000000D+00  4.6232572168400D-02  1.4798117741772D+00
   129  1.2800000000000D+00  1.6496316480263D-02  1.4887877671660D+00
   130  1.2900000000000D+00 -1.2243813354046D-02  1.4952065023502D+00
   131  1.3000000000000D+00 -3.9949378984484D-02  1.4990621111676D+00
   132  1.3100000000000D+00 -6.6585395952493D-02  1.5003571221097D+00
   133  1.3200000000000D+00 -9.2120390119851D-02  1.4991024098912D+00
   134  1.3300000000000D+00 -1.1652644142960D-01  1.4953171128259D+00
   135  1.3400000000000D+00 -1.3977921491326D-01  1.4890285186921D+00
   136  1.3500000000000D+00 -1.6185797901148D-01  1.4802719197632D+00
   137  1.3600000000000D+00 -1.8274561124555D-01  1.4690904375941D+00
   138  1.3700000000000D+00 -2.0242859132671D-01  1.4555348182937D+00
   139  1.3800000000000D+00 -2.2089698192163D-01  1.4396631993264D+00
   140  1.3900000000000D+00 -2.3814439721520D-01  1.4215408487037D+00
   141  1.4000000000000D+00 -2.5416795955894D-01  1.4012398777833D+00
   142  1.4100000000000D+00 -2.6896824452087D-01  1.3788389289524D+00
   143  1.4200000000000D+00 -2.8254921460794D-01  1.3544228393748D+00
   144  1.4300000000000D+00 -2.9491814213724D-01  1.3280822824506D+00
   145  1.4400000000000D+00 -3.0608552159721D-01  1.2999133883275D+00
   146  1.4500000000000D+00 -3.1606497200144D-01  1.2700173451736D+00
   147  1.4600000000000D+00 -3.2487312974033D-01  1.2384999829045D+00
   148  1.4700000000000D+00 -3.3252953240150D-01  1.2054713410121D+00
   149  1.4800000000000D+00 -3.3905649420985D-01  1.1710452224810D+00
   150  1.4900000000000D+00 -3.4447897357410D-01  1.1353387354755D+00
   151  1.5000000000000D+00 -3.4882443344067D-01  1.0984718248729D+00
   152  1.5100000000000D+00 -3.5212269503216D-01  1.0605667954840D+00
   153  1.5200000000000D+00 -3.5440578565159D-01  1.0217478290052D+00
   154  1.5300000000000D+00 -3.5570778122541D-01  9.8214049666792D-01
   155  1.5400000000000D+00 -3.5606464425149D-01  9.4187126963100D-01
   156  1.5500000000000D+00 -3.5551405787547D-01  9.0106702907341D-01
   157  1.5600000000000D+00 -3.5409525677231D-01  8.5985457809418D-01
   158  1.5700000000000D+00 -3.5184885555720D-01  8.1836015727200D-01
   159  1.5800000000000D+00 -3.4881667543044D-01  7.7670896602640D-01
   160  1.5900000000000D+00 -3.4504156975396D-01  7.3502469153400D-01
   161  1.6000000000000D+00 -3.4056724927521D-01  6.9342904726974D-01
   162  1.6100000000000D+00 -3.3543810767567D-01  6.5204132287891D-01
   163  1.6200000000000D+00 -3.2969904813322D-01  6.1097794726104D-01
   164  1.6300000000000D+00 -3.2339531156989D-01  5.7035206656791D-01
   165  1.6400000000000D+00 -3.1657230721022D-01  5.3027313870981D-01
   166  1.6500000000000D+00 -3.0927544612758D-01  4.9084654609463D-01
   167  1.6600000000000D+00 -3.0154997830958D-01  4.5217322783565D-01
   168  1.6700000000000D+00 -2.9344083392907D-01  4.1434933317504D-01
   169  1.6800000000000D+00 -2.8499246923914D-01  3.7746589696503D-01
   170  1.6900000000000D+00 -2.7624871778062D-01  3.4160853894345D-01
   171  1.7000000000000D+00 -2.6725264720295D-01  3.0685718725859D-01
   172  1.7100000000000D+00 -2.5804642236858D-01  2.7328582789860D-01
   173  1.7200000000000D+00 -2.4867117493654D-01  2.4096228014966D-01
   174  1.7300000000000D+00 -2.3916688004120D-01  2.0994799954140D-01
   175  1.7400000000000D+00 -2.2957224018813D-01  1.8029790818364D-01
   176  1.7500000000000D+00 -2.1992457687569D-01  1.5206025359429D-01
   177  1.7600000000000D+00 -2.1025973004311D-01  1.2527649586836D-01
   178  1.7700000000000D+00 -2.0061196567554D-01  9.9981223722925D-02
   179  1.7800000000000D+00 -1.9101389171740D-01  7.6202099429291D-02
   180  1.7900000000000D+00 -1.8149638236216D-01  5.3959832363958D-02
   181  1.8000000000000D+00 -1.7208851100556D-01  3.3268181595355D-02
   182  1.8100000000000D+00 -1.6281749157856D-01  1.4133986193864D-02
   183  1.8200000000000D+00 -1.5370862876953D-01 -3.4427756767955D-03
   184  1.8300000000000D+00 -1.4478527642251D-01 -1.9468901436532D-02
   185  1.8400000000000D+00 -1.3606880490505D-01 -3.3957850686332D-02
   186  1.8500000000000D+00 -1.2757857629037D-01 -4.6929607506721D-02
   187  1.8600000000000D+00 -1.1933192759495D-01 -5.8410518174840D-02
   188  1.8700000000000D+00 -1.1134416542692D-01 -6.8433095555573D-02
   189  1.8800000000000D+00 -1.0362855688684D-01 -7.7035831935706D-02
   190  1.8900000000000D+00 -9.6196354004431D-02 -8.4262921180431D-02
   191  1.9000000000000D+00 -8.9056803405730D-02 -9.0164016758263D-02
   192  1.9100000000000D+00 -8.2217132934707D-02 -9.4794055038514D-02
   193  1.9200000000000D+00 -7.5682580593025D-02 -9.8212966824314D-02
   194  1.9300000000000D+00 -6.9456558734785D-02 -1.0048501099972D-01
   195  1.9400000000000D+00 -6.3540765874158D-02 -1.0167824533645D-01
   196  1.9500000000000D+00 -5.7935332991817D-02 -1.0186396604523D-01
   197  1.9600000000000D+00 -5.2639034276168D-02 -1.0111595381744D-01
   198  1.9700000000000D+00 -4.7649363051475D-02 -9.9510107804758D-02
   199  1.9800000000000D+00 -4.2962598349273D-02 -9.7124117356929D-02
   200  1.9900000000000D+00 -3.8573893672747D-02 -9.4037075055816D-02
   201  2.0000000000000D+00 -3.4477392877606D-02 -9.0329009076543D-02
   202  2.0100000000000D+00 -3.0666318958727D-02 -8.6080502264420D-02
   203  2.0200000000000D+00 -2.7133078202362D-02 -8.1372270388155D-02
   204  2.0300000000000D+00 -2.3869359879712D-02 -7.6284757751476D-02
   205  2.0400000000000D+00 -2.0866236566205D-02 -7.0897735787525D-02
   206  2.0500000000000D+00 -1.8114263733153D-02 -6.5289908546784D-02
   207  2.0600000000000D+00 -1.5603578106099D-02 -5.9538526602364D-02
   208  2.0700000000000D+00 -1.3323993758365D-02 -5.3719012673186D-02
   209  2.0800000000000D+00 -1.1265096220015D-02 -4.7904597935729D-02
   210  2.0900000000000D+00 -9.4163330489020D-03 -4.2165973928829D-02
   211  2.1000000000000D+00 -7.7671011598247D-03 -3.6570959055886D-02
   212  2.1100000000000D+00 -6.3068302263835D-03 -3.1184181794194D-02
   213  2.1200000000000D+00 -5.0250610147086D-03 -2.6066784124220D-02
   214  2.1300000000000D+00 -3.9115196796320D-03 -2.1276141985664D-02
   215  2.1400000000000D+00 -2.9563335356186D-03 -1.6867210881968D-02
   216  2.1500000000000D+00 -2.1498220845672D-03 -1.2889345855620D-02
   217  2.1600000000000D+00 -1.4818815270623D-03 -9.3788016663849D-03
   218  2.1700000000000D+00 -9.4257494698227D-04 -6.3608781049468D-03
   219  2.1800000000000D+00 -5.2633467272899D-04 -3.9079574132123D-03
   220  2.1900000000000D+00 -2.2765765065102D-04 -2.0844937519601D-03
   221  2.2000000000000D+00 -3.7857071402624D-05 -9.1295515805566D-04
   222  2.2100000000000D+00  5.7662140293462D-05 -2.6632526903207D-04
   223  2.2200000000000D+00  7.6178335008680D-05  5.7221417518694D-06
   224  2.2300000000000D+00  4.6690842071421D-05  5.5679216125816D-05
   225  2.2400000000000D+00  5.6609620595160D-06  9.2841268423947D-06
   226  2.2500000000000D+00 -1.2158808290098D-05 -2.1779532005079D-05
   227  2.2600000000000D+00 -9.7502223139852D-06 -1.9228347472090D-05
   228  2.2700000000000D+00  5.9312106928817D-07  7.7076580621013D-07
   229  2.2800000000000D+00  2.7482163286966D-06  3.8412086766267D-06
   230  2.2900000000000D+00  1.5676788246345D-06  2.3118089040486D-06
   231  2.3000000000000D+00 -1.1428828403827D-07  1.4275052139105D-07
   232  2.3100000000000D+00 -2.1362079337454D-07  2.6682069724639D-07
   233  2.3200000000000D+00 -7.3835010288126D-08  9.2222805725336D-08
   234  2.3300000000000D+00  0.0000000000000D+00  0.0000000000000D+00
   235  2.3400000000000D+00  0.0000000000000D+00  0.0000000000000D+00
   236  2.3500000000000D+00  0.0000000000000D+00  0.0000000000000D+00
   237  2.3600000000000D+00  0.0000000000000D+00  0.0000000000000D+00
   238  2.3700000000000D+00  0.0000000000000D+00  0.0000000000000D+00
   239  2.3800000000000D+00  0.0000000000000D+00  0.0000000000000D+00
   240  2.3900000000000D+00  0.0000000000000D+00  0.0000000000000D+00
   241  2.4000000000000D+00  0.0000000000000D+00  0.0000000000000D+00
   242  2.4100000000000D+00  0.0000000000000D+00  0.0000000000000D+00
   243  2.4200000000000D+00  0.0000000000000D+00  0.0000000000000D+00
   244  2.4300000000000D+00  0.0000000000000D+00  0.0000000000000D+00
   245  2.4400000000000D+00  0.0000000000000D+00  0.0000000000000D+00
   246  2.4500000000000D+00  0.0000000000000D+00  0.0000000000000D+00
   247  2.4600000000000D+00  0.0000000000000D+00  0.0000000000000D+00
   248  2.4700000000000D+00  0.0000000000000D+00  0.0000000000000D+00
   249  2.4800000000000D+00  0.0000000000000D+00  0.0000000000000D+00
   250  2.4900000000000D+00  0.0000000000000D+00  0.0000000000000D+00
   251  2.5000000000000D+00  0.0000000000000D+00  0.0000000000000D+00
   252  2.5100000000000D+00  0.0000000000000D+00  0.0000000000000D+00
   253  2.5200000000000D+00  0.0000000000000D+00  0.0000000000000D+00
   254  2.5300000000000D+00  0.0000000000000D+00  0.0000000000000D+00
   255  2.5400000000000D+00  0.0000000000000D+00  0.0000000000000D+00
   256  2.5500000000000D+00  0.0000000000000D+00  0.0000000000000D+00
   257  2.5600000000000D+00  0.0000000000000D+00  0.0000000000000D+00
   258  2.5700000000000D+00  0.0000000000000D+00  0.0000000000000D+00
   259  2.5800000000000D+00  0.0000000000000D+00  0.0000000000000D+00
   260  2.5900000000000D+00  0.0000000000000D+00  0.0000000000000D+00
   261  2.6000000000000D+00  0.0000000000000D+00  0.0000000000000D+00
   262  2.6100000000000D+00  0.0000000000000D+00  0.0000000000000D+00
   263  2.6200000000000D+00  0.0000000000000D+00  0.0000000000000D+00
   264  2.6300000000000D+00  0.0000000000000D+00  0.0000000000000D+00
   265  2.6400000000000D+00  0.0000000000000D+00  0.0000000000000D+00
   266  2.6500000000000D+00  0.0000000000000D+00  0.0000000000000D+00
   267  2.6600000000000D+00  0.0000000000000D+00  0.0000000000000D+00
   268  2.6700000000000D+00  0.0000000000000D+00  0.0000000000000D+00
   269  2.6800000000000D+00  0.0000000000000D+00  0.0000000000000D+00
   270  2.6900000000000D+00  0.0000000000000D+00  0.0000000000000D+00
   271  2.7000000000000D+00  0.0000000000000D+00  0.0000000000000D+00
   272  2.7100000000000D+00  0.0000000000000D+00  0.0000000000000D+00
   273  2.7200000000000D+00  0.0000000000000D+00  0.0000000000000D+00
   274  2.7300000000000D+00  0.0000000000000D+00  0.0000000000000D+00
   275  2.7400000000000D+00  0.0000000000000D+00  0.0000000000000D+00
   276  2.7500000000000D+00  0.0000000000000D+00  0.0000000000000D+00
   277  2.7600000000000D+00  0.0000000000000D+00  0.0000000000000D+00
   278  2.7700000000000D+00  0.0000000000000D+00  0.0000000000000D+00
   279  2.7800000000000D+00  0.0000000000000D+00  0.0000000000000D+00
   280  2.7900000000000D+00  0.0000000000000D+00  0.0000000000000D+00
   281  2.8000000000000D+00  0.0000000000000D+00  0.0000000000000D+00
   282  2.8100000000000D+00  0.0000000000000D+00  0.0000000000000D+00
   283  2.8200000000000D+00  0.0000000000000D+00  0.0000000000000D+00
   284  2.8300000000000D+00  0.0000000000000D+00  0.0000000000000D+00
   285  2.8400000000000D+00  0.0000000000000D+00  0.0000000000000D+00
   286  2.8500000000000D+00  0.0000000000000D+00  0.0000000000000D+00
   287  2.8600000000000D+00  0.0000000000000D+00  0.0000000000000D+00
   288  2.8700000000000D+00  0.0000000000000D+00  0.0000000000000D+00
   289  2.8800000000000D+00  0.0000000000000D+00  0.0000000000000D+00
   290  2.8900000000000D+00  0.0000000000000D+00  0.0000000000000D+00
   291  2.9000000000000D+00  0.0000000000000D+00  0.0000000000000D+00
   292  2.9100000000000D+00  0.0000000000000D+00  0.0000000000000D+00
   293  2.9200000000000D+00  0.0000000000000D+00  0.0000000000000D+00
   294  2.9300000000000D+00  0.0000000000000D+00  0.0000000000000D+00
   295  2.9400000000000D+00  0.0000000000000D+00  0.0000000000000D+00
   296  2.9500000000000D+00  0.0000000000000D+00  0.0000000000000D+00
   297  2.9600000000000D+00  0.0000000000000D+00  0.0000000000000D+00
   298  2.9700000000000D+00  0.0000000000000D+00  0.0000000000000D+00
   299  2.9800000000000D+00  0.0000000000000D+00  0.0000000000000D+00
   300  2.9900000000000D+00  0.0000000000000D+00  0.0000000000000D+00
   301  3.0000000000000D+00  0.0000000000000D+00  0.0000000000000D+00
   302  3.0100000000000D+00  0.0000000000000D+00  0.0000000000000D+00
   303  3.0200000000000D+00  0.0000000000000D+00  0.0000000000000D+00
   304  3.0300000000000D+00  0.0000000000000D+00  0.0000000000000D+00
   305  3.0400000000000D+00  0.0000000000000D+00  0.0000000000000D+00
   306  3.0500000000000D+00  0.0000000000000D+00  0.0000000000000D+00
   307  3.0600000000000D+00  0.0000000000000D+00  0.0000000000000D+00
   308  3.0700000000000D+00  0.0000000000000D+00  0.0000000000000D+00
   309  3.0800000000000D+00  0.0000000000000D+00  0.0000000000000D+00
   310  3.0900000000000D+00  0.0000000000000D+00  0.0000000000000D+00
   311  3.1000000000000D+00  0.0000000000000D+00  0.0000000000000D+00
   312  3.1100000000000D+00  0.0000000000000D+00  0.0000000000000D+00
   313  3.1200000000000D+00  0.0000000000000D+00  0.0000000000000D+00
   314  3.1300000000000D+00  0.0000000000000D+00  0.0000000000000D+00
   315  3.1400000000000D+00  0.0000000000000D+00  0.0000000000000D+00
   316  3.1500000000000D+00  0.0000000000000D+00  0.0000000000000D+00
   317  3.1600000000000D+00  0.0000000000000D+00  0.0000000000000D+00
   318  3.1700000000000D+00  0.0000000000000D+00  0.0000000000000D+00
   319  3.1800000000000D+00  0.0000000000000D+00  0.0000000000000D+00
   320  3.1900000000000D+00  0.0000000000000D+00  0.0000000000000D+00
   321  3.2000000000000D+00  0.0000000000000D+00  0.0000000000000D+00
   322  3.2100000000000D+00  0.0000000000000D+00  0.0000000000000D+00
   323  3.2200000000000D+00  0.0000000000000D+00  0.0000000000000D+00
   324  3.2300000000000D+00  0.0000000000000D+00  0.0000000000000D+00
   325  3.2400000000000D+00  0.0000000000000D+00  0.0000000000000D+00
   326  3.2500000000000D+00  0.0000000000000D+00  0.0000000000000D+00
   327  3.2600000000000D+00  0.0000000000000D+00  0.0000000000000D+00
   328  3.2700000000000D+00  0.0000000000000D+00  0.0000000000000D+00
   329  3.2800000000000D+00  0.0000000000000D+00  0.0000000000000D+00
   330  3.2900000000000D+00  0.0000000000000D+00  0.0000000000000D+00
   331  3.3000000000000D+00  0.0000000000000D+00  0.0000000000000D+00
   332  3.3100000000000D+00  0.0000000000000D+00  0.0000000000000D+00
   333  3.3200000000000D+00  0.0000000000000D+00  0.0000000000000D+00
   334  3.3300000000000D+00  0.0000000000000D+00  0.0000000000000D+00
   335  3.3400000000000D+00  0.0000000000000D+00  0.0000000000000D+00
   336  3.3500000000000D+00  0.0000000000000D+00  0.0000000000000D+00
   337  3.3600000000000D+00  0.0000000000000D+00  0.0000000000000D+00
   338  3.3700000000000D+00  0.0000000000000D+00  0.0000000000000D+00
   339  3.3800000000000D+00  0.0000000000000D+00  0.0000000000000D+00
   340  3.3900000000000D+00  0.0000000000000D+00  0.0000000000000D+00
   341  3.4000000000000D+00  0.0000000000000D+00  0.0000000000000D+00
   342  3.4100000000000D+00  0.0000000000000D+00  0.0000000000000D+00
   343  3.4200000000000D+00  0.0000000000000D+00  0.0000000000000D+00
   344  3.4300000000000D+00  0.0000000000000D+00  0.0000000000000D+00
   345  3.4400000000000D+00  0.0000000000000D+00  0.0000000000000D+00
   346  3.4500000000000D+00  0.0000000000000D+00  0.0000000000000D+00
   347  3.4600000000000D+00  0.0000000000000D+00  0.0000000000000D+00
   348  3.4700000000000D+00  0.0000000000000D+00  0.0000000000000D+00
   349  3.4800000000000D+00  0.0000000000000D+00  0.0000000000000D+00
   350  3.4900000000000D+00  0.0000000000000D+00  0.0000000000000D+00
   351  3.5000000000000D+00  0.0000000000000D+00  0.0000000000000D+00
   352  3.5100000000000D+00  0.0000000000000D+00  0.0000000000000D+00
   353  3.5200000000000D+00  0.0000000000000D+00  0.0000000000000D+00
   354  3.5300000000000D+00  0.0000000000000D+00  0.0000000000000D+00
   355  3.5400000000000D+00  0.0000000000000D+00  0.0000000000000D+00
   356  3.5500000000000D+00  0.0000000000000D+00  0.0000000000000D+00
   357  3.5600000000000D+00  0.0000000000000D+00  0.0000000000000D+00
   358  3.5700000000000D+00  0.0000000000000D+00  0.0000000000000D+00
   359  3.5800000000000D+00  0.0000000000000D+00  0.0000000000000D+00
   360  3.5900000000000D+00  0.0000000000000D+00  0.0000000000000D+00
   361  3.6000000000000D+00  0.0000000000000D+00  0.0000000000000D+00
   362  3.6100000000000D+00  0.0000000000000D+00  0.0000000000000D+00
   363  3.6200000000000D+00  0.0000000000000D+00  0.0000000000000D+00
   364  3.6300000000000D+00  0.0000000000000D+00  0.0000000000000D+00
   365  3.6400000000000D+00  0.0000000000000D+00  0.0000000000000D+00
   366  3.6500000000000D+00  0.0000000000000D+00  0.0000000000000D+00
   367  3.6600000000000D+00  0.0000000000000D+00  0.0000000000000D+00
   368  3.6700000000000D+00  0.0000000000000D+00  0.0000000000000D+00
   369  3.6800000000000D+00  0.0000000000000D+00  0.0000000000000D+00
   370  3.6900000000000D+00  0.0000000000000D+00  0.0000000000000D+00
   371  3.7000000000000D+00  0.0000000000000D+00  0.0000000000000D+00
   372  3.7100000000000D+00  0.0000000000000D+00  0.0000000000000D+00
   373  3.7200000000000D+00  0.0000000000000D+00  0.0000000000000D+00
   374  3.7300000000000D+00  0.0000000000000D+00  0.0000000000000D+00
   375  3.7400000000000D+00  0.0000000000000D+00  0.0000000000000D+00
   376  3.7500000000000D+00  0.0000000000000D+00  0.0000000000000D+00
   377  3.7600000000000D+00  0.0000000000000D+00  0.0000000000000D+00
   378  3.7700000000000D+00  0.0000000000000D+00  0.0000000000000D+00
   379  3.7800000000000D+00  0.0000000000000D+00  0.0000000000000D+00
   380  3.7900000000000D+00  0.0000000000000D+00  0.0000000000000D+00
   381  3.8000000000000D+00  0.0000000000000D+00  0.0000000000000D+00
   382  3.8100000000000D+00  0.0000000000000D+00  0.0000000000000D+00
   383  3.8200000000000D+00  0.0000000000000D+00  0.0000000000000D+00
   384  3.8300000000000D+00  0.0000000000000D+00  0.0000000000000D+00
   385  3.8400000000000D+00  0.0000000000000D+00  0.0000000000000D+00
   386  3.8500000000000D+00  0.0000000000000D+00  0.0000000000000D+00
   387  3.8600000000000D+00  0.0000000000000D+00  0.0000000000000D+00
   388  3.8700000000000D+00  0.0000000000000D+00  0.0000000000000D+00
   389  3.8800000000000D+00  0.0000000000000D+00  0.0000000000000D+00
   390  3.8900000000000D+00  0.0000000000000D+00  0.0000000000000D+00
   391  3.9000000000000D+00  0.0000000000000D+00  0.0000000000000D+00
   392  3.9100000000000D+00  0.0000000000000D+00  0.0000000000000D+00
   393  3.9200000000000D+00  0.0000000000000D+00  0.0000000000000D+00
   394  3.9300000000000D+00  0.0000000000000D+00  0.0000000000000D+00
   395  3.9400000000000D+00  0.0000000000000D+00  0.0000000000000D+00
   396  3.9500000000000D+00  0.0000000000000D+00  0.0000000000000D+00
   397  3.9600000000000D+00  0.0000000000000D+00  0.0000000000000D+00
   398  3.9700000000000D+00  0.0000000000000D+00  0.0000000000000D+00
   399  3.9800000000000D+00  0.0000000000000D+00  0.0000000000000D+00
   400  3.9900000000000D+00  0.0000000000000D+00  0.0000000000000D+00
   401  4.0000000000000D+00  0.0000000000000D+00  0.0000000000000D+00
   402  4.0100000000000D+00  0.0000000000000D+00  0.0000000000000D+00
   403  4.0200000000000D+00  0.0000000000000D+00  0.0000000000000D+00
   404  4.0300000000000D+00  0.0000000000000D+00  0.0000000000000D+00
   405  4.0400000000000D+00  0.0000000000000D+00  0.0000000000000D+00
   406  4.0500000000000D+00  0.0000000000000D+00  0.0000000000000D+00
   407  4.0600000000000D+00  0.0000000000000D+00  0.0000000000000D+00
   408  4.0700000000000D+00  0.0000000000000D+00  0.0000000000000D+00
   409  4.0800000000000D+00  0.0000000000000D+00  0.0000000000000D+00
   410  4.0900000000000D+00  0.0000000000000D+00  0.0000000000000D+00
   411  4.1000000000000D+00  0.0000000000000D+00  0.0000000000000D+00
   412  4.1100000000000D+00  0.0000000000000D+00  0.0000000000000D+00
   413  4.1200000000000D+00  0.0000000000000D+00  0.0000000000000D+00
   414  4.1300000000000D+00  0.0000000000000D+00  0.0000000000000D+00
   415  4.1400000000000D+00  0.0000000000000D+00  0.0000000000000D+00
   416  4.1500000000000D+00  0.0000000000000D+00  0.0000000000000D+00
   417  4.1600000000000D+00  0.0000000000000D+00  0.0000000000000D+00
   418  4.1700000000000D+00  0.0000000000000D+00  0.0000000000000D+00
   419  4.1800000000000D+00  0.0000000000000D+00  0.0000000000000D+00
   420  4.1900000000000D+00  0.0000000000000D+00  0.0000000000000D+00
   421  4.2000000000000D+00  0.0000000000000D+00  0.0000000000000D+00
   422  4.2100000000000D+00  0.0000000000000D+00  0.0000000000000D+00