Er    ONCVPSP-3.3.0  r_core=   1.81708   1.50137   1.65170   1.71187
     68.0000     22.0000      220117    zatom,zion,pspd
     8      11   3     4   600     0    pspcod,pspxc,lmax,lloc,mmax,r2well
  5.99000000  0.00000000  0.00000000    rchrg fchrg qchrg
     2     2     2     2     0    nproj
     1     1           extension_switch
   0                         8.6891597719916D+00  6.8810330047470D-01
     1  0.0000000000000D+00 -5.7804649955528D-11  3.2191818655214D-10
     2  1.0000000000000D-02  5.3175721478405D-02 -2.4142116889257D-02
     3  2.0000000000000D-02  1.0627028504291D-01 -4.8133035997991D-02
     4  3.0000000000000D-02  1.5920277076259D-01 -7.1822634438648D-02
     5  4.0000000000000D-02  2.1189273308262D-01 -9.5062929823756D-02
     6  5.0000000000000D-02  2.6426043405263D-01 -1.1770912738348D-01
     7  6.0000000000000D-02  3.1622707184466D-01 -1.3962063955359D-01
     8  7.0000000000000D-02  3.6771500305883D-01 -1.6066206923740D-01
     9  8.0000000000000D-02  4.1864795737288D-01 -1.8070414826724D-01
    10  9.0000000000000D-02  4.6895124316266D-01 -1.9962462298808D-01
    11  1.0000000000000D-01  5.1855194280496D-01 -2.1730907935533D-01
    12  1.1000000000000D-01  5.6737909647014D-01 -2.3365170047625D-01
    13  1.2000000000000D-01  6.1536387331911D-01 -2.4855595012560D-01
    14  1.3000000000000D-01  6.6243972913708D-01 -2.6193517642586D-01
    15  1.4000000000000D-01  7.0854254956263D-01 -2.7371313059495D-01
    16  1.5000000000000D-01  7.5361077820563D-01 -2.8382439642447D-01
    17  1.6000000000000D-01  7.9758552908838D-01 -2.9221472695123D-01
    18  1.7000000000000D-01  8.4041068299117D-01 -2.9884128561899D-01
    19  1.8000000000000D-01  8.8203296743395D-01 -3.0367279008752D-01
    20  1.9000000000000D-01  9.2240202017872D-01 -3.0668955772542D-01
    21  2.0000000000000D-01  9.6147043629183D-01 -3.0788345271348D-01
    22  2.1000000000000D-01  9.9919379895857D-01 -3.0725773557952D-01
    23  2.2000000000000D-01  1.0355306943948D+00 -3.0482681687515D-01
    24  2.3000000000000D-01  1.0704427113482D+00 -3.0061591758179D-01
    25  2.4000000000000D-01  1.1038944258256D+00 -2.9466063968988D-01
    26  2.5000000000000D-01  1.1358533718202D+00 -2.8700645122357D-01
    27  2.6000000000000D-01  1.1662899989391D+00 -2.7770809077577D-01
    28  2.7000000000000D-01  1.1951776179574D+00 -2.6682889736705D-01
    29  2.8000000000000D-01  1.2224923354265D+00 -2.5444007214090D-01
    30  2.9000000000000D-01  1.2482129785699D+00 -2.4061987904863D-01
    31  3.0000000000000D-01  1.2723210117792D+00 -2.2545279225535D-01
    32  3.1000000000000D-01  1.2948004460973D+00 -2.0902859850599D-01
    33  3.2000000000000D-01  1.3156377431296D+00 -1.9144146312428D-01
    34  3.3000000000000D-01  1.3348217148676D+00 -1.7278896867138D-01
    35  3.4000000000000D-01  1.3523434209315D+00 -1.5317113556101D-01
    36  3.5000000000000D-01  1.3681960647484D+00 -1.3268943411229D-01
    37  3.6000000000000D-01  1.3823748901713D+00 -1.1144579761543D-01
    38  3.7000000000000D-01  1.3948770800220D+00 -8.9541645988834D-02
    39  3.8000000000000D-01  1.4057016579931D+00 -6.7076929517727D-02
    40  3.9000000000000D-01  1.4148493952891D+00 -4.4149201983501D-02
    41  4.0000000000000D-01  1.4223227233075D+00 -2.0852732221009D-02
    42  4.1000000000000D-01  1.4281256535678D+00  2.7223372204477D-03
    43  4.2000000000000D-01  1.4322637059925D+00  2.6490776085464D-02
    44  4.3000000000000D-01  1.4347438465180D+00  5.0372989395262D-02
    45  4.4000000000000D-01  1.4355744348812D+00  7.4295670321384D-02
    46  4.5000000000000D-01  1.4347651832798D+00  9.8192376552208D-02
    47  4.6000000000000D-01  1.4323271264478D+00  1.2200402450808D-01
    48  4.7000000000000D-01  1.4282726035188D+00  1.4567929657545D-01
    49  4.8000000000000D-01  1.4226152518795D+00  1.6917495739875D-01
    50  4.9000000000000D-01  1.4153700130352D+00  1.9245607618397D-01
    51  5.0000000000000D-01  1.4065531503252D+00  2.1549615291790D-01
    52  5.1000000000000D-01  1.3961822781456D+00  2.3827714738648D-01
    53  5.2000000000000D-01  1.3842764021501D+00  2.6078941087149D-01
    54  5.3000000000000D-01  1.3708559697213D+00  2.8303152140924D-01
    55  5.4000000000000D-01  1.3559429298296D+00  3.0501002449551D-01
    56  5.5000000000000D-01  1.3395608012262D+00  3.2673908210945D-01
    57  5.6000000000000D-01  1.3217347477617D+00  3.4824003389218D-01
    58  5.7000000000000D-01  1.3024916594705D+00  3.6954087524560D-01
    59  5.8000000000000D-01  1.2818602379309D+00  3.9067565800053D-01
    60  5.9000000000000D-01  1.2598710842900D+00  4.1168382013295D-01
    61  6.0000000000000D-01  1.2365567882442D+00  4.3260945177086D-01
    62  6.1000000000000D-01  1.2119520161824D+00  4.5350050542451D-01
    63  6.2000000000000D-01  1.1860935966392D+00  4.7440795898144D-01
    64  6.3000000000000D-01  1.1590206011672D+00  4.9538494052289D-01
    65  6.4000000000000D-01  1.1307744187213D+00  5.1648582444143D-01
    66  6.5000000000000D-01  1.1013988216549D+00  5.3776530865359D-01
    67  6.6000000000000D-01  1.0709400214656D+00  5.5927748291218D-01
    68  6.7000000000000D-01  1.0394467124798D+00  5.8107489831968D-01
    69  6.8000000000000D-01  1.0069701017563D+00  6.0320764812631D-01
    70  6.9000000000000D-01  9.7356392359136D-01  6.2572246976570D-01
    71  7.0000000000000D-01  9.3928443714349D-01  6.4866187783214D-01
    72  7.1000000000000D-01  9.0419040585321D-01  6.7206333734269D-01
    73  7.2000000000000D-01  8.6834305750896D-01  6.9595848615619D-01
    74  7.3000000000000D-01  8.3180602401142D-01  7.2037241484489D-01
    75  7.4000000000000D-01  7.9464526010671D-01  7.4532301163432D-01
    76  7.5000000000000D-01  7.5692894059323D-01  7.7082037925885D-01
    77  7.6000000000000D-01  7.1872733575649D-01  7.9686632972555D-01
    78  7.7000000000000D-01  6.8011266504704D-01  8.2345396205011D-01
    79  7.8000000000000D-01  6.4115892928592D-01  8.5056732703794D-01
    80  7.9000000000000D-01  6.0194172195679D-01  8.7818118214045D-01
    81  8.0000000000000D-01  5.6253802041988D-01  9.0626083834096D-01
    82  8.1000000000000D-01  5.2302595815866D-01  9.3476209991729D-01
    83  8.2000000000000D-01  4.8348457943850D-01  9.6363129682254D-01
    84  8.3000000000000D-01  4.4399357801714D-01  9.9280540832015D-01
    85  8.4000000000000D-01  4.0463302179342D-01  1.0222122754307D+00
    86  8.5000000000000D-01  3.6548306551057D-01  1.0517708987057D+00
    87  8.6000000000000D-01  3.2662365383929D-01  1.0813918168603D+00
    88  8.7000000000000D-01  2.8813421735029D-01  1.1109775608767D+00
    89  8.8000000000000D-01  2.5009336404222D-01  1.1404231773665D+00
    90  8.9000000000000D-01  2.1257856921559D-01  1.1696168142439D+00
    91  9.0000000000000D-01  1.7566586657378D-01  1.1984403611503D+00
    92  9.1000000000000D-01  1.3942954348494D-01  1.2267701365765D+00
    93  9.2000000000000D-01  1.0394184335229D-01  1.2544776132765D+00
    94  9.3000000000000D-01  6.9272678011201D-02  1.2814301733572D+00
    95  9.4000000000000D-01  3.5489353001095D-02  1.3074918843727D+00
    96  9.5000000000000D-01  2.6563084439490D-03  1.3325242878542D+00
    97  9.6000000000000D-01 -2.9165121898774D-02  1.3563871919701D+00
    98  9.7000000000000D-01 -5.9916931023070D-02  1.3789394604384D+00
    99  9.8000000000000D-01 -8.9544636413408D-02  1.4000397903957D+00
   100  9.9000000000000D-01 -1.1799745327787D-01  1.4195474726743D+00
   101  1.0000000000000D+00 -1.4522844178625D-01  1.4373231288208D+00
   102  1.0100000000000D+00 -1.7119462718062D-01  1.4532294202324D+00
   103  1.0200000000000D+00 -1.9585709202414D-01  1.4671317259304D+00
   104  1.0300000000000D+00 -2.1918104027832D-01  1.4788987867354D+00
   105  1.0400000000000D+00 -2.4113583336824D-01  1.4884033150098D+00
   106  1.0500000000000D+00 -2.6169499885377D-01  1.4955225705190D+00
   107  1.0600000000000D+00 -2.8083621281267D-01  1.5001389044345D+00
   108  1.0700000000000D+00 -2.9854125755448D-01  1.5021402750616D+00
   109  1.0800000000000D+00 -3.1479595671599D-01  1.5014207401770D+00
   110  1.0900000000000D+00 -3.2959009033946D-01  1.4978809325144D+00
   111  1.1000000000000D+00 -3.4291729294892D-01  1.4914285261562D+00
   112  1.1100000000000D+00 -3.5477493809447D-01  1.4819787028982D+00
   113  1.1200000000000D+00 -3.6516401321897D-01  1.4694546287113D+00
   114  1.1300000000000D+00 -3.7408898904354D-01  1.4537879513401D+00
   115  1.1400000000000D+00 -3.8155768800185D-01  1.4349193308482D+00
   116  1.1500000000000D+00 -3.8758115644103D-01  1.4127990152342D+00
   117  1.1600000000000D+00 -3.9217354545138D-01  1.3873874732989D+00
   118  1.1700000000000D+00 -3.9535200528572D-01  1.3586560969107D+00
   119  1.1800000000000D+00 -3.9713659827747D-01  1.3265879839999D+00
   120  1.1900000000000D+00 -3.9755023495479D-01  1.2911788122984D+00
   121  1.2000000000000D+00 -3.9661863787904D-01  1.2524378127621D+00
   122  1.2100000000000D+00 -3.9437033731645D-01  1.2103888493038D+00
   123  1.2200000000000D+00 -3.9083670221317D-01  1.1650716084010D+00
   124  1.2300000000000D+00 -3.8605200922082D-01  1.1165428987499D+00
   125  1.2400000000000D+00 -3.8005355205859D-01  1.0648780588974D+00
   126  1.2500000000000D+00 -3.7288179189902D-01  1.0101724635701D+00
   127  1.2600000000000D+00 -3.6458054817510D-01  9.5254311379421D-01
   128  1.2700000000000D+00 -3.5519722897282D-01  8.9213029474175D-01
   129  1.2800000000000D+00 -3.4478309697123D-01  8.2909927127795D-01
   130  1.2900000000000D+00 -3.3339356524279D-01  7.6364198417398D-01
   131  1.3000000000000D+00 -3.2108851729403D-01  6.9597871010718D-01
   132  1.3100000000000D+00 -3.0793264018945D-01  6.2635962486156D-01
   133  1.3200000000000D+00 -2.9399575832132D-01  5.5506620377198D-01
   134  1.3300000000000D+00 -2.7935315512174D-01  4.8241239220985D-01
   135  1.3400000000000D+00 -2.6408586153013D-01  4.0874544290868D-01
   136  1.3500000000000D+00 -2.4828089090397D-01  3.3444632066807D-01
   137  1.3600000000000D+00 -2.3203139695127D-01  2.5992956174422D-01
   138  1.3700000000000D+00 -2.1543672020024D-01  1.8564242841756D-01
   139  1.3800000000000D+00 -1.9860229501736D-01  1.1206322671458D-01
   140  1.3900000000000D+00 -1.8163937564979D-01  3.9698597983681D-02
   141  1.4000000000000D+00 -1.6466453408005D-01 -3.0920429144888D-02
   142  1.4100000000000D+00 -1.4779889032365D-01 -9.9243806545617D-02
   143  1.4200000000000D+00 -1.3116700671666D-01 -1.6470955765498D-01
   144  1.4300000000000D+00 -1.1489539522740D-01 -2.2675282116718D-01
   145  1.4400000000000D+00 -9.9110565948224D-02 -2.8481716521595D-01
   146  1.4500000000000D+00 -8.3936523695471D-02 -3.3836859172199D-01
   147  1.4600000000000D+00 -6.9491674865249D-02 -3.8691237062511D-01
   148  1.4700000000000D+00 -5.5884895654785D-02 -4.3001391184609D-01
   149  1.4800000000000D+00 -4.3211399423780D-02 -4.6732022935068D-01
   150  1.4900000000000D+00 -3.1547430893623D-02 -4.9858680006351D-01
   151  1.5000000000000D+00 -2.0939262287801D-02 -5.2373540390814D-01
   152  1.5100000000000D+00 -1.1403927632359D-02 -5.4284551218871D-01
   153  1.5200000000000D+00 -2.9338766027640D-03 -5.5612251245463D-01
   154  1.5300000000000D+00  4.4942173761967D-03 -5.6384731433868D-01
   155  1.5400000000000D+00  1.0907268869615D-02 -5.6630759355420D-01
   156  1.5500000000000D+00  1.6338911325342D-02 -5.6381566946812D-01
   157  1.5600000000000D+00  2.0829718877565D-02 -5.5671064011854D-01
   158  1.5700000000000D+00  2.4425677637066D-02 -5.4535004339888D-01
   159  1.5800000000000D+00  2.7178039038640D-02 -5.3010968524980D-01
   160  1.5900000000000D+00  2.9142578762056D-02 -5.1138010154267D-01
   161  1.6000000000000D+00  3.0379003998439D-02 -4.8956391104858D-01
   162  1.6100000000000D+00  3.0950304929319D-02 -4.6507289211671D-01
   163  1.6200000000000D+00  3.0922083873634D-02 -4.3832496736693D-01
   164  1.6300000000000D+00  3.0361869115331D-02 -4.0974112836557D-01
   165  1.6400000000000D+00  2.9338419896400D-02 -3.7974232948701D-01
   166  1.6500000000000D+00  2.7921027475793D-02 -3.4874637152050D-01
   167  1.6600000000000D+00  2.6178818050109D-02 -3.1716479993263D-01
   168  1.6700000000000D+00  2.4180062658894D-02 -2.8539984024152D-01
   169  1.6800000000000D+00  2.1991500713612D-02 -2.5384139915975D-01
   170  1.6900000000000D+00  1.9677680967633D-02 -2.2286414816861D-01
   171  1.7000000000000D+00  1.7300327528641D-02 -1.9282472243944D-01
   172  1.7100000000000D+00  1.4917733144784D-02 -1.6405904485963D-01
   173  1.7200000000000D+00  1.2584188209131D-02 -1.3687981178202D-01
   174  1.7300000000000D+00  1.0349446046809D-02 -1.1157414301642D-01
   175  1.7400000000000D+00  8.2582334057538D-03 -8.8401434775233D-02
   176  1.7500000000000D+00  6.3498047609743D-03 -6.7591409351825D-02
   177  1.7600000000000D+00  4.6587403979929D-03 -4.9354944407431D-02
   178  1.7700000000000D+00  3.2096355838917D-03 -3.3830223197313D-02
   179  1.7800000000000D+00  2.0169611799514D-03 -2.1087505879775D-02
   180  1.7900000000000D+00  1.1086386977363D-03 -1.1361591729849D-02
   181  1.8000000000000D+00  5.1322937934266D-04 -4.9149633794665D-03
   182  1.8100000000000D+00  1.9739408166485D-04 -1.4582556707382D-03
   183  1.8200000000000D+00  6.0376978260399D-05 -8.5089312200604D-05
   184  1.8300000000000D+00  9.8977793014149D-06  1.5374599299056D-04
   185  1.8400000000000D+00 -1.8259289934886D-07 -1.4106391298128D-05
   186  1.8500000000000D+00  6.0661210660127D-07 -7.3200599721929D-05
   187  1.8600000000000D+00  1.6088207393363D-07 -9.0037183796125D-06
   188  1.8700000000000D+00  3.2234736442997D-07  1.1545510068478D-05
   189  1.8800000000000D+00  9.1776212433458D-08  5.1382537809580D-06
   190  1.8900000000000D+00 -2.1724954952640D-07  8.1390520691699D-07
   191  1.9000000000000D+00 -1.7685099155098D-07  6.6255577139543D-07
   192  1.9100000000000D+00  0.0000000000000D+00  0.0000000000000D+00
   193  1.9200000000000D+00  0.0000000000000D+00  0.0000000000000D+00
   194  1.9300000000000D+00  0.0000000000000D+00  0.0000000000000D+00
   195  1.9400000000000D+00  0.0000000000000D+00  0.0000000000000D+00
   196  1.9500000000000D+00  0.0000000000000D+00  0.0000000000000D+00
   197  1.9600000000000D+00  0.0000000000000D+00  0.0000000000000D+00
   198  1.9700000000000D+00  0.0000000000000D+00  0.0000000000000D+00
   199  1.9800000000000D+00  0.0000000000000D+00  0.0000000000000D+00
   200  1.9900000000000D+00  0.0000000000000D+00  0.0000000000000D+00
   201  2.0000000000000D+00  0.0000000000000D+00  0.0000000000000D+00
   202  2.0100000000000D+00  0.0000000000000D+00  0.0000000000000D+00
   203  2.0200000000000D+00  0.0000000000000D+00  0.0000000000000D+00
   204  2.0300000000000D+00  0.0000000000000D+00  0.0000000000000D+00
   205  2.0400000000000D+00  0.0000000000000D+00  0.0000000000000D+00
   206  2.0500000000000D+00  0.0000000000000D+00  0.0000000000000D+00
   207  2.0600000000000D+00  0.0000000000000D+00  0.0000000000000D+00
   208  2.0700000000000D+00  0.0000000000000D+00  0.0000000000000D+00
   209  2.0800000000000D+00  0.0000000000000D+00  0.0000000000000D+00
   210  2.0900000000000D+00  0.0000000000000D+00  0.0000000000000D+00
   211  2.1000000000000D+00  0.0000000000000D+00  0.0000000000000D+00
   212  2.1100000000000D+00  0.0000000000000D+00  0.0000000000000D+00
   213  2.1200000000000D+00  0.0000000000000D+00  0.0000000000000D+00
   214  2.1300000000000D+00  0.0000000000000D+00  0.0000000000000D+00
   215  2.1400000000000D+00  0.0000000000000D+00  0.0000000000000D+00
   216  2.1500000000000D+00  0.0000000000000D+00  0.0000000000000D+00
   217  2.1600000000000D+00  0.0000000000000D+00  0.0000000000000D+00
   218  2.1700000000000D+00  0.0000000000000D+00  0.0000000000000D+00
   219  2.1800000000000D+00  0.0000000000000D+00  0.0000000000000D+00
   220  2.1900000000000D+00  0.0000000000000D+00  0.0000000000000D+00
   221  2.2000000000000D+00  0.0000000000000D+00  0.0000000000000D+00
   222  2.2100000000000D+00  0.0000000000000D+00  0.0000000000000D+00
   223  2.2200000000000D+00  0.0000000000000D+00  0.0000000000000D+00
   224  2.2300000000000D+00  0.0000000000000D+00  0.0000000000000D+00
   225  2.2400000000000D+00  0.0000000000000D+00  0.0000000000000D+00
   226  2.2500000000000D+00  0.0000000000000D+00  0.0000000000000D+00
   227  2.2600000000000D+00  0.0000000000000D+00  0.0000000000000D+00
   228  2.2700000000000D+00  0.0000000000000D+00  0.0000000000000D+00
   229  2.2800000000000D+00  0.0000000000000D+00  0.0000000000000D+00
   230  2.2900000000000D+00  0.0000000000000D+00  0.0000000000000D+00
   231  2.3000000000000D+00  0.0000000000000D+00  0.0000000000000D+00
   232  2.3100000000000D+00  0.0000000000000D+00  0.0000000000000D+00
   233  2.3200000000000D+00  0.0000000000000D+00  0.0000000000000D+00
   234  2.3300000000000D+00  0.0000000000000D+00  0.0000000000000D+00
   235  2.3400000000000D+00  0.0000000000000D+00  0.0000000000000D+00
   236  2.3500000000000D+00  0.0000000000000D+00  0.0000000000000D+00
   237  2.3600000000000D+00  0.0000000000000D+00  0.0000000000000D+00
   238  2.3700000000000D+00  0.0000000000000D+00  0.0000000000000D+00
   239  2.3800000000000D+00  0.0000000000000D+00  0.0000000000000D+00
   240  2.3900000000000D+00  0.0000000000000D+00  0.0000000000000D+00
   241  2.4000000000000D+00  0.0000000000000D+00  0.0000000000000D+00
   242  2.4100000000000D+00  0.0000000000000D+00  0.0000000000000D+00
   243  2.4200000000000D+00  0.0000000000000D+00  0.0000000000000D+00
   244  2.4300000000000D+00  0.0000000000000D+00  0.0000000000000D+00
   245  2.4400000000000D+00  0.0000000000000D+00  0.0000000000000D+00
   246  2.4500000000000D+00  0.0000000000000D+00  0.0000000000000D+00
   247  2.4600000000000D+00  0.0000000000000D+00  0.0000000000000D+00
   248  2.4700000000000D+00  0.0000000000000D+00  0.0000000000000D+00
   249  2.4800000000000D+00  0.0000000000000D+00  0.0000000000000D+00
   250  2.4900000000000D+00  0.0000000000000D+00  0.0000000000000D+00
   251  2.5000000000000D+00  0.0000000000000D+00  0.0000000000000D+00
   252  2.5100000000000D+00  0.0000000000000D+00  0.0000000000000D+00
   253  2.5200000000000D+00  0.0000000000000D+00  0.0000000000000D+00
   254  2.5300000000000D+00  0.0000000000000D+00  0.0000000000000D+00
   255  2.5400000000000D+00  0.0000000000000D+00  0.0000000000000D+00
   256  2.5500000000000D+00  0.0000000000000D+00  0.0000000000000D+00
   257  2.5600000000000D+00  0.0000000000000D+00  0.0000000000000D+00
   258  2.5700000000000D+00  0.0000000000000D+00  0.0000000000000D+00
   259  2.5800000000000D+00  0.0000000000000D+00  0.0000000000000D+00
   260  2.5900000000000D+00  0.0000000000000D+00  0.0000000000000D+00
   261  2.6000000000000D+00  0.0000000000000D+00  0.0000000000000D+00
   262  2.6100000000000D+00  0.0000000000000D+00  0.0000000000000D+00
   263  2.6200000000000D+00  0.0000000000000D+00  0.0000000000000D+00
   264  2.6300000000000D+00  0.0000000000000D+00  0.0000000000000D+00
   265  2.6400000000000D+00  0.0000000000000D+00  0.0000000000000D+00
   266  2.6500000000000D+00  0.0000000000000D+00  0.0000000000000D+00
   267  2.6600000000000D+00  0.0000000000000D+00  0.0000000000000D+00
   268  2.6700000000000D+00  0.0000000000000D+00  0.0000000000000D+00
   269  2.6800000000000D+00  0.0000000000000D+00  0.0000000000000D+00
   270  2.6900000000000D+00  0.0000000000000D+00  0.0000000000000D+00
   271  2.7000000000000D+00  0.0000000000000D+00  0.0000000000000D+00
   272  2.7100000000000D+00  0.0000000000000D+00  0.0000000000000D+00
   273  2.7200000000000D+00  0.0000000000000D+00  0.0000000000000D+00
   274  2.7300000000000D+00  0.0000000000000D+00  0.0000000000000D+00
   275  2.7400000000000D+00  0.0000000000000D+00  0.0000000000000D+00
   276  2.7500000000000D+00  0.0000000000000D+00  0.0000000000000D+00
   277  2.7600000000000D+00  0.0000000000000D+00  0.0000000000000D+00
   278  2.7700000000000D+00  0.0000000000000D+00  0.0000000000000D+00
   279  2.7800000000000D+00  0.0000000000000D+00  0.0000000000000D+00
   280  2.7900000000000D+00  0.0000000000000D+00  0.0000000000000D+00
   281  2.8000000000000D+00  0.0000000000000D+00  0.0000000000000D+00
   282  2.8100000000000D+00  0.0000000000000D+00  0.0000000000000D+00
   283  2.8200000000000D+00  0.0000000000000D+00  0.0000000000000D+00
   284  2.8300000000000D+00  0.0000000000000D+00  0.0000000000000D+00
   285  2.8400000000000D+00  0.0000000000000D+00  0.0000000000000D+00
   286  2.8500000000000D+00  0.0000000000000D+00  0.0000000000000D+00
   287  2.8600000000000D+00  0.0000000000000D+00  0.0000000000000D+00
   288  2.8700000000000D+00  0.0000000000000D+00  0.0000000000000D+00
   289  2.8800000000000D+00  0.0000000000000D+00  0.0000000000000D+00
   290  2.8900000000000D+00  0.0000000000000D+00  0.0000000000000D+00
   291  2.9000000000000D+00  0.0000000000000D+00  0.0000000000000D+00
   292  2.9100000000000D+00  0.0000000000000D+00  0.0000000000000D+00
   293  2.9200000000000D+00  0.0000000000000D+00  0.0000000000000D+00
   294  2.9300000000000D+00  0.0000000000000D+00  0.0000000000000D+00
   295  2.9400000000000D+00  0.0000000000000D+00  0.0000000000000D+00
   296  2.9500000000000D+00  0.0000000000000D+00  0.0000000000000D+00
   297  2.9600000000000D+00  0.0000000000000D+00  0.0000000000000D+00
   298  2.9700000000000D+00  0.0000000000000D+00  0.0000000000000D+00
   299  2.9800000000000D+00  0.0000000000000D+00  0.0000000000000D+00
   300  2.9900000000000D+00  0.0000000000000D+00  0.0000000000000D+00
   301  3.0000000000000D+00  0.0000000000000D+00  0.0000000000000D+00
   302  3.0100000000000D+00  0.0000000000000D+00  0.0000000000000D+00
   303  3.0200000000000D+00  0.0000000000000D+00  0.0000000000000D+00
   304  3.0300000000000D+00  0.0000000000000D+00  0.0000000000000D+00
   305  3.0400000000000D+00  0.0000000000000D+00  0.0000000000000D+00
   306  3.0500000000000D+00  0.0000000000000D+00  0.0000000000000D+00
   307  3.0600000000000D+00  0.0000000000000D+00  0.0000000000000D+00
   308  3.0700000000000D+00  0.0000000000000D+00  0.0000000000000D+00
   309  3.0800000000000D+00  0.0000000000000D+00  0.0000000000000D+00
   310  3.0900000000000D+00  0.0000000000000D+00  0.0000000000000D+00
   311  3.1000000000000D+00  0.0000000000000D+00  0.0000000000000D+00
   312  3.1100000000000D+00  0.0000000000000D+00  0.0000000000000D+00
   313  3.1200000000000D+00  0.0000000000000D+00  0.0000000000000D+00
   314  3.1300000000000D+00  0.0000000000000D+00  0.0000000000000D+00
   315  3.1400000000000D+00  0.0000000000000D+00  0.0000000000000D+00
   316  3.1500000000000D+00  0.0000000000000D+00  0.0000000000000D+00
   317  3.1600000000000D+00  0.0000000000000D+00  0.0000000000000D+00
   318  3.1700000000000D+00  0.0000000000000D+00  0.0000000000000D+00
   319  3.1800000000000D+00  0.0000000000000D+00  0.0000000000000D+00
   320  3.1900000000000D+00  0.0000000000000D+00  0.0000000000000D+00
   321  3.2000000000000D+00  0.0000000000000D+00  0.0000000000000D+00
   322  3.2100000000000D+00  0.0000000000000D+00  0.0000000000000D+00
   323  3.2200000000000D+00  0.0000000000000D+00  0.0000000000000D+00
   324  3.2300000000000D+00  0.0000000000000D+00  0.0000000000000D+00
   325  3.2400000000000D+00  0.0000000000000D+00  0.0000000000000D+00
   326  3.2500000000000D+00  0.0000000000000D+00  0.0000000000000D+00
   327  3.2600000000000D+00  0.0000000000000D+00  0.0000000000000D+00
   328  3.2700000000000D+00  0.0000000000000D+00  0.0000000000000D+00
   329  3.2800000000000D+00  0.0000000000000D+00  0.0000000000000D+00
   330  3.2900000000000D+00  0.0000000000000D+00  0.0000000000000D+00
   331  3.3000000000000D+00  0.0000000000000D+00  0.0000000000000D+00
   332  3.3100000000000D+00  0.0000000000000D+00  0.0000000000000D+00
   333  3.3200000000000D+00  0.0000000000000D+00  0.0000000000000D+00
   334  3.3300000000000D+00  0.0000000000000D+00  0.0000000000000D+00
   335  3.3400000000000D+00  0.0000000000000D+00  0.0000000000000D+00
   336  3.3500000000000D+00  0.0000000000000D+00  0.0000000000000D+00
   337  3.3600000000000D+00  0.0000000000000D+00  0.0000000000000D+00
   338  3.3700000000000D+00  0.0000000000000D+00  0.0000000000000D+00
   339  3.3800000000000D+00  0.0000000000000D+00  0.0000000000000D+00
   340  3.3900000000000D+00  0.0000000000000D+00  0.0000000000000D+00
   341  3.4000000000000D+00  0.0000000000000D+00  0.0000000000000D+00
   342  3.4100000000000D+00  0.0000000000000D+00  0.0000000000000D+00
   343  3.4200000000000D+00  0.0000000000000D+00  0.0000000000000D+00
   344  3.4300000000000D+00  0.0000000000000D+00  0.0000000000000D+00
   345  3.4400000000000D+00  0.0000000000000D+00  0.0000000000000D+00
   346  3.4500000000000D+00  0.0000000000000D+00  0.0000000000000D+00
   347  3.4600000000000D+00  0.0000000000000D+00  0.0000000000000D+00
   348  3.4700000000000D+00  0.0000000000000D+00  0.0000000000000D+00
   349  3.4800000000000D+00  0.0000000000000D+00  0.0000000000000D+00
   350  3.4900000000000D+00  0.0000000000000D+00  0.0000000000000D+00
   351  3.5000000000000D+00  0.0000000000000D+00  0.0000000000000D+00
   352  3.5100000000000D+00  0.0000000000000D+00  0.0000000000000D+00
   353  3.5200000000000D+00  0.0000000000000D+00  0.0000000000000D+00
   354  3.5300000000000D+00  0.0000000000000D+00  0.0000000000000D+00
   355  3.5400000000000D+00  0.0000000000000D+00  0.0000000000000D+00
   356  3.5500000000000D+00  0.0000000000000D+00  0.0000000000000D+00
   357  3.5600000000000D+00  0.0000000000000D+00  0.0000000000000D+00
   358  3.5700000000000D+00  0.0000000000000D+00  0.0000000000000D+00
   359  3.5800000000000D+00  0.0000000000000D+00  0.0000000000000D+00
   360  3.5900000000000D+00  0.0000000000000D+00  0.0000000000000D+00
   361  3.6000000000000D+00  0.0000000000000D+00  0.0000000000000D+00
   362  3.6100000000000D+00  0.0000000000000D+00  0.0000000000000D+00
   363  3.6200000000000D+00  0.0000000000000D+00  0.0000000000000D+00
   364  3.6300000000000D+00  0.0000000000000D+00  0.0000000000000D+00
   365  3.6400000000000D+00  0.0000000000000D+00  0.0000000000000D+00
   366  3.6500000000000D+00  0.0000000000000D+00  0.0000000000000D+00
   367  3.6600000000000D+00  0.0000000000000D+00  0.0000000000000D+00
   368  3.6700000000000D+00  0.0000000000000D+00  0.0000000000000D+00
   369  3.6800000000000D+00  0.0000000000000D+00  0.0000000000000D+00
   370  3.6900000000000D+00  0.0000000000000D+00  0.0000000000000D+00
   371  3.7000000000000D+00  0.0000000000000D+00  0.0000000000000D+00
   372  3.7100000000000D+00  0.0000000000000D+00  0.0000000000000D+00
   373  3.7200000000000D+00  0.0000000000000D+00  0.0000000000000D+00
   374  3.7300000000000D+00  0.0000000000000D+00  0.0000000000000D+00
   375  3.7400000000000D+00  0.0000000000000D+00  0.0000000000000D+00
   376  3.7500000000000D+00  0.0000000000000D+00  0.0000000000000D+00
   377  3.7600000000000D+00  0.0000000000000D+00  0.0000000000000D+00
   378  3.7700000000000D+00  0.0000000000000D+00  0.0000000000000D+00
   379  3.7800000000000D+00  0.0000000000000D+00  0.0000000000000D+00
   380  3.7900000000000D+00  0.0000000000000D+00  0.0000000000000D+00
   381  3.8000000000000D+00  0.0000000000000D+00  0.0000000000000D+00
   382  3.8100000000000D+00  0.0000000000000D+00  0.0000000000000D+00
   383  3.8200000000000D+00  0.0000000000000D+00  0.0000000000000D+00
   384  3.8300000000000D+00  0.0000000000000D+00  0.0000000000000D+00
   385  3.8400000000000D+00  0.0000000000000D+00  0.0000000000000D+00
   386  3.8500000000000D+00  0.0000000000000D+00  0.0000000000000D+00
   387  3.8600000000000D+00  0.0000000000000D+00  0.0000000000000D+00
   388  3.8700000000000D+00  0.0000000000000D+00  0.0000000000000D+00
   389  3.8800000000000D+00  0.0000000000000D+00  0.0000000000000D+00
   390  3.8900000000000D+00  0.0000000000000D+00  0.0000000000000D+00
   391  3.9000000000000D+00  0.0000000000000D+00  0.0000000000000D+00
   392  3.9100000000000D+00  0.0000000000000D+00  0.0000000000000D+00
   393  3.9200000000000D+00  0.0000000000000D+00  0.0000000000000D+00
   394  3.9300000000000D+00  0.0000000000000D+00  0.0000000000000D+00
   395  3.9400000000000D+00  0.0000000000000D+00  0.0000000000000D+00
   396  3.9500000000000D+00  0.0000000000000D+00  0.0000000000000D+00
   397  3.9600000000000D+00  0.0000000000000D+00  0.0000000000000D+00
   398  3.9700000000000D+00  0.0000000000000D+00  0.0000000000000D+00
   399  3.9800000000000D+00  0.0000000000000D+00  0.0000000000000D+00
   400  3.9900000000000D+00  0.0000000000000D+00  0.0000000000000D+00
   401  4.0000000000000D+00  0.0000000000000D+00  0.0000000000000D+00
   402  4.0100000000000D+00  0.0000000000000D+00  0.0000000000000D+00
   403  4.0200000000000D+00  0.0000000000000D+00  0.0000000000000D+00
   404  4.0300000000000D+00  0.0000000000000D+00  0.0000000000000D+00
   405  4.0400000000000D+00  0.0000000000000D+00  0.0000000000000D+00
   406  4.0500000000000D+00  0.0000000000000D+00  0.0000000000000D+00
   407  4.0600000000000D+00  0.0000000000000D+00  0.0000000000000D+00
   408  4.0700000000000D+00  0.0000000000000D+00  0.0000000000000D+00
   409  4.0800000000000D+00  0.0000000000000D+00  0.0000000000000D+00
   410  4.0900000000000D+00  0.0000000000000D+00  0.0000000000000D+00
   411  4.1000000000000D+00  0.0000000000000D+00  0.0000000000000D+00
   412  4.1100000000000D+00  0.0000000000000D+00  0.0000000000000D+00
   413  4.1200000000000D+00  0.0000000000000D+00  0.0000000000000D+00
   414  4.1300000000000D+00  0.0000000000000D+00  0.0000000000000D+00
   415  4.1400000000000D+00  0.0000000000000D+00  0.0000000000000D+00
   416  4.1500000000000D+00  0.0000000000000D+00  0.0000000000000D+00
   417  4.1600000000000D+00  0.0000000000000D+00  0.0000000000000D+00
   418  4.1700000000000D+00  0.0000000000000D+00  0.0000000000000D+00
   419  4.1800000000000D+00  0.0000000000000D+00  0.0000000000000D+00
   420  4.1900000000000D+00  0.0000000000000D+00  0.0000000000000D+00
   421  4.2000000000000D+00  0.0000000000000D+00  0.0000000000000D+00
   422  4.2100000000000D+00  0.0000000000000D+00  0.0000000000000D+00