Rh    ONCVPSP-3.3.0  r_core=   1.40787   1.40787   1.35838
     45.0000     17.0000      220117    zatom,zion,pspd
     8      11   2     4   600     0    pspcod,pspxc,lmax,lloc,mmax,r2well
  5.99000000  0.00000000  0.00000000    rchrg fchrg qchrg
     2     2     2     0     0    nproj
     1     1           extension_switch
   0                         1.6276313763105D+01  1.5023053377327D+00
     1  0.0000000000000D+00  1.7556822662357D-10 -4.0600078854425D-10
     2  1.0000000000000D-02  7.8996893819640D-02 -3.6063549487316D-02
     3  2.0000000000000D-02  1.5782649549017D-01 -7.1964244058040D-02
     4  3.0000000000000D-02  2.3632172057038D-01 -1.0753931637529D-01
     5  4.0000000000000D-02  3.1431590272134D-01 -1.4262618099634D-01
     6  5.0000000000000D-02  3.9164300942850D-01 -1.7706254205192D-01
     7  6.0000000000000D-02  4.6813786560292D-01 -2.1068652071268D-01
     8  7.0000000000000D-02  5.4363638747941D-01 -2.4333680855627D-01
     9  8.0000000000000D-02  6.1797582905392D-01 -2.7485285254223D-01
    10  9.0000000000000D-02  6.9099504308661D-01 -3.0507507680310D-01
    11  1.0000000000000D-01  7.6253475844386D-01 -3.3384514587433D-01
    12  1.1000000000000D-01  8.3243787526453D-01 -3.6100627331995D-01
    13  1.2000000000000D-01  9.0054977911668D-01 -3.8640357897261D-01
    14  1.3000000000000D-01  9.6671867496406D-01 -4.0988449720523D-01
    15  1.4000000000000D-01  1.0307959413917D+00 -4.3129923779550D-01
    16  1.5000000000000D-01  1.0926365051505D+00 -4.5050130004444D-01
    17  1.6000000000000D-01  1.1520992356770D+00 -4.6734803987739D-01
    18  1.7000000000000D-01  1.2090473588315D+00 -4.8170128870025D-01
    19  1.8000000000000D-01  1.2633488886787D+00 -4.9342802181790D-01
    20  1.9000000000000D-01  1.3148770757195D+00 -5.0240107325743D-01
    21  2.0000000000000D-01  1.3635108695684D+00 -5.0849989288730D-01
    22  2.1000000000000D-01  1.4091353936716D+00 -5.1161134079706D-01
    23  2.2000000000000D-01  1.4516424292749D+00 -5.1163051301322D-01
    24  2.3000000000000D-01  1.4909309054860D+00 -5.0846159178541D-01
    25  2.4000000000000D-01  1.5269073919384D+00 -5.0201871289549D-01
    26  2.5000000000000D-01  1.5594865902532D+00 -4.9222684173072D-01
    27  2.6000000000000D-01  1.5885918202237D+00 -4.7902264923033D-01
    28  2.7000000000000D-01  1.6141554964103D+00 -4.6235537827261D-01
    29  2.8000000000000D-01  1.6361195906421D+00 -4.4218769062488D-01
    30  2.9000000000000D-01  1.6544360757718D+00 -4.1849648423825D-01
    31  3.0000000000000D-01  1.6690673459325D+00 -3.9127367044152D-01
    32  3.1000000000000D-01  1.6799866084950D+00 -3.6052690047529D-01
    33  3.2000000000000D-01  1.6871782429299D+00 -3.2628023081691D-01
    34  3.3000000000000D-01  1.6906381218306D+00 -2.8857471687785D-01
    35  3.4000000000000D-01  1.6903738894722D+00 -2.4746892491224D-01
    36  3.5000000000000D-01  1.6864051934387D+00 -2.0303935235614D-01
    37  3.6000000000000D-01  1.6787638650764D+00 -1.5538074732300D-01
    38  3.7000000000000D-01  1.6674940448024D+00 -1.0460631860587D-01
    39  3.8000000000000D-01  1.6526522486179D+00 -5.0847828281017D-02
    40  3.9000000000000D-01  1.6343073725540D+00  5.7444401381446D-03
    41  4.0000000000000D-01  1.6125406321920D+00  6.5001844087427D-02
    42  4.1000000000000D-01  1.5874454348659D+00  1.2673767991241D-01
    43  4.2000000000000D-01  1.5591271826541D+00  1.9074762029071D-01
    44  4.3000000000000D-01  1.5277030048048D+00  2.5681029378132D-01
    45  4.4000000000000D-01  1.4933014188057D+00  3.2468800787508D-01
    46  4.5000000000000D-01  1.4560619199008D+00  3.9412761557631D-01
    47  4.6000000000000D-01  1.4161344994678D+00  4.6486152415893D-01
    48  4.7000000000000D-01  1.3736790932946D+00  5.3660884332667D-01
    49  4.8000000000000D-01  1.3288649614270D+00  6.0907666857786D-01
    50  4.9000000000000D-01  1.2818700018942D+00  6.8196149414977D-01
    51  5.0000000000000D-01  1.2328800012453D+00  7.5495074850501D-01
    52  5.1000000000000D-01  1.1820878254539D+00  8.2772444394333D-01
    53  5.2000000000000D-01  1.1296925553421D+00  8.9995693058727D-01
    54  5.3000000000000D-01  1.0758985712574D+00  9.7131874371760D-01
    55  5.4000000000000D-01  1.0209145922772D+00  1.0414785322357D+00
    56  5.5000000000000D-01  9.6495267573121D-01  1.1101050549222D+00
    57  5.6000000000000D-01  9.0822718329435D-01  1.1768692301553D+00
    58  5.7000000000000D-01  8.5095372032742D-01  1.2414462238611D+00
    59  5.8000000000000D-01  7.9334805550908D-01  1.3035175597041D+00
    60  5.9000000000000D-01  7.3562502811392D-01  1.3627732349020D+00
    61  6.0000000000000D-01  6.7799745054094D-01  1.4189138245655D+00
    62  6.1000000000000D-01  6.2067501388202D-01  1.4716525571398D+00
    63  6.2000000000000D-01  5.6386320443709D-01  1.5207173433622D+00
    64  6.3000000000000D-01  5.0776223912992D-01  1.5658527411466D+00
    65  6.4000000000000D-01  4.5256602775430D-01  1.6068218389815D+00
    66  6.5000000000000D-01  3.9846116988334D-01  1.6434080407643D+00
    67  6.6000000000000D-01  3.4562599410447D-01  1.6754167355120D+00
    68  6.7000000000000D-01  2.9422964700159D-01  1.7026768360636D+00
    69  6.8000000000000D-01  2.4443123899178D-01  1.7250421717393D+00
    70  6.9000000000000D-01  1.9637905374215D-01  1.7423927209250D+00
    71  7.0000000000000D-01  1.5020982744274D-01  1.7546356707134D+00
    72  7.1000000000000D-01  1.0604810370243D-01  1.7617062920247D+00
    73  7.2000000000000D-01  6.4005669260526D-02  1.7635686200790D+00
    74  7.3000000000000D-01  2.4181075084419D-02  1.7602159316379D+00
    75  7.4000000000000D-01 -1.3340753250736D-02  1.7516710121035D+00
    76  7.5000000000000D-01 -4.8488812721783D-02  1.7379862073203D+00
    77  7.6000000000000D-01 -8.1206225129505D-02  1.7192432567551D+00
    78  7.7000000000000D-01 -1.1145034283998D-01  1.6955529066315D+00
    79  7.8000000000000D-01 -1.3919275715761D-01  1.6670543035288D+00
    80  7.9000000000000D-01 -1.6441920931147D-01  1.6339141709152D+00
    81  8.0000000000000D-01 -1.8712940486409D-01  1.5963257730515D+00
    82  8.1000000000000D-01 -2.0733673317767D-01  1.5545076726491D+00
    83  8.2000000000000D-01 -2.2506789439009D-01  1.5087022905795D+00
    84  8.3000000000000D-01 -2.4036243715240D-01  1.4591742777959D+00
    85  8.4000000000000D-01 -2.5327221115470D-01  1.4062087114069D+00
    86  8.5000000000000D-01 -2.6386073920880D-01  1.3501091285402D+00
    87  8.6000000000000D-01 -2.7220251435733D-01  1.2911954132133D+00
    88  8.7000000000000D-01 -2.7838222813234D-01  1.2298015528788D+00
    89  8.8000000000000D-01 -2.8249393668513D-01  1.1662732826248D+00
    90  8.9000000000000D-01 -2.8464017204671D-01  1.1009656361533D+00
    91  9.0000000000000D-01 -2.8493100624903D-01  1.0342404236389D+00
    92  9.1000000000000D-01 -2.8348307643585D-01  9.6646365735411D-01
    93  9.2000000000000D-01 -2.8041857941424D-01  8.9800294654596D-01
    94  9.3000000000000D-01 -2.7586424433952D-01  8.2922488343185D-01
    95  9.4000000000000D-01 -2.6995029238466D-01  7.6049244236519D-01
    96  9.5000000000000D-01 -2.6280939231831D-01  6.9216241418130D-01
    97  9.6000000000000D-01 -2.5457562090207D-01  6.2458289748353D-01
    98  9.7000000000000D-01 -2.4538343691262D-01  5.5809086814485D-01
    99  9.8000000000000D-01 -2.3536667741348D-01  4.9300984763805D-01
   100  9.9000000000000D-01 -2.2465758462070D-01  4.2964768988634D-01
   101  1.0000000000000D+00 -2.1338587135206D-01  3.6829450523462D-01
   102  1.0100000000000D+00 -2.0167783261278D-01  3.0922073884493D-01
   103  1.0200000000000D+00 -1.8965551035644D-01  2.5267541933792D-01
   104  1.0300000000000D+00 -1.7743591787748D-01  1.9888459185561D-01
   105  1.0400000000000D+00 -1.6513032961709D-01  1.4804994785009D-01
   106  1.0500000000000D+00 -1.5284364151594D-01  1.0034766212194D-01
   107  1.0600000000000D+00 -1.4067380620100D-01  5.5927445338041D-02
   108  1.0700000000000D+00 -1.2871134654280D-01  1.4911818244935D-02
   109  1.0800000000000D+00 -1.1703895025906D-01 -2.2604388499255D-02
   110  1.0900000000000D+00 -1.0573114730906D-01 -5.6554307409442D-02
   111  1.1000000000000D+00 -9.4854071080348D-02 -8.6899080661553D-02
   112  1.1100000000000D+00 -8.4465303261367D-02 -1.1362768335878D-01
   113  1.1200000000000D+00 -7.4613801535576D-02 -1.3675652890995D-01
   114  1.1300000000000D+00 -6.5339908216591D-02 -1.5632886446674D-01
   115  1.1400000000000D+00 -5.6675437208667D-02 -1.7241396624677D-01
   116  1.1500000000000D+00 -4.8643835664977D-02 -1.8510614714030D-01
   117  1.1600000000000D+00 -4.1260415961960D-02 -1.9452359089372D-01
   118  1.1700000000000D+00 -3.4532652756910D-02 -2.0080702928269D-01
   119  1.1800000000000D+00 -2.8460539361694D-02 -2.0411828001817D-01
   120  1.1900000000000D+00 -2.3036996719962D-02 -2.0463866544627D-01
   121  1.2000000000000D+00 -1.8248327821643D-02 -2.0256733318036D-01
   122  1.2100000000000D+00 -1.4074709848397D-02 -1.9811950108109D-01
   123  1.2200000000000D+00 -1.0490715894952D-02 -1.9152465006284D-01
   124  1.2300000000000D+00 -7.4658576164236D-03 -1.8302468929744D-01
   125  1.2400000000000D+00 -4.9651399999506D-03 -1.7287211863190D-01
   126  1.2500000000000D+00 -2.9496192317029D-03 -1.6132821357522D-01
   127  1.2600000000000D+00 -1.3769543982932D-03 -1.4866125850503D-01
   128  1.2700000000000D+00 -2.0194103492786D-04 -1.3514486486500D-01
   129  1.2800000000000D+00  6.2296341468434D-04 -1.2105632215949D-01
   130  1.2900000000000D+00  1.1472040473523D-03 -1.0667529773178D-01
   131  1.3000000000000D+00  1.4214972586838D-03 -9.2281736479591D-02
   132  1.3100000000000D+00  1.4980217086303D-03 -7.8157009123938D-02
   133  1.3200000000000D+00  1.4290781732199D-03 -6.4578892642419D-02
   134  1.3300000000000D+00  1.2643807370339D-03 -5.1810996685553D-02
   135  1.3400000000000D+00  1.0481867412321D-03 -4.0091924227380D-02
   136  1.3500000000000D+00  8.1723240454858D-04 -2.9627704934185D-02
   137  1.3600000000000D+00  6.0075563672905D-04 -2.0594030505801D-02
   138  1.3700000000000D+00  4.1968874863920D-04 -1.3130875487442D-02
   139  1.3800000000000D+00  2.8326542707308D-04 -7.3002496624591D-03
   140  1.3900000000000D+00  2.0225183965171D-04 -3.2702594905394D-03
   141  1.4000000000000D+00  1.8147179208878D-04 -1.1650813655996D-03
   142  1.4100000000000D+00  1.4110273452605D-04 -3.4234267063257D-04
   143  1.4200000000000D+00  4.1192989870111D-05 -4.8921128650890D-05
   144  1.4300000000000D+00 -1.5254007111089D-05  1.1439191169334D-05
   145  1.4400000000000D+00 -4.3553144519072D-06  1.9233340132276D-06
   146  1.4500000000000D+00  3.6730839173385D-06 -4.0616075831169D-06
   147  1.4600000000000D+00 -7.9732405754480D-08  2.3260788829971D-07
   148  1.4700000000000D+00 -4.0513629587261D-07  1.1819271896383D-06
   149  1.4800000000000D+00  0.0000000000000D+00  0.0000000000000D+00
   150  1.4900000000000D+00  0.0000000000000D+00  0.0000000000000D+00
   151  1.5000000000000D+00  0.0000000000000D+00  0.0000000000000D+00
   152  1.5100000000000D+00  0.0000000000000D+00  0.0000000000000D+00
   153  1.5200000000000D+00  0.0000000000000D+00  0.0000000000000D+00
   154  1.5300000000000D+00  0.0000000000000D+00  0.0000000000000D+00
   155  1.5400000000000D+00  0.0000000000000D+00  0.0000000000000D+00
   156  1.5500000000000D+00  0.0000000000000D+00  0.0000000000000D+00
   157  1.5600000000000D+00  0.0000000000000D+00  0.0000000000000D+00
   158  1.5700000000000D+00  0.0000000000000D+00  0.0000000000000D+00
   159  1.5800000000000D+00  0.0000000000000D+00  0.0000000000000D+00
   160  1.5900000000000D+00  0.0000000000000D+00  0.0000000000000D+00
   161  1.6000000000000D+00  0.0000000000000D+00  0.0000000000000D+00
   162  1.6100000000000D+00  0.0000000000000D+00  0.0000000000000D+00
   163  1.6200000000000D+00  0.0000000000000D+00  0.0000000000000D+00
   164  1.6300000000000D+00  0.0000000000000D+00  0.0000000000000D+00
   165  1.6400000000000D+00  0.0000000000000D+00  0.0000000000000D+00
   166  1.6500000000000D+00  0.0000000000000D+00  0.0000000000000D+00
   167  1.6600000000000D+00  0.0000000000000D+00  0.0000000000000D+00
   168  1.6700000000000D+00  0.0000000000000D+00  0.0000000000000D+00
   169  1.6800000000000D+00  0.0000000000000D+00  0.0000000000000D+00
   170  1.6900000000000D+00  0.0000000000000D+00  0.0000000000000D+00
   171  1.7000000000000D+00  0.0000000000000D+00  0.0000000000000D+00
   172  1.7100000000000D+00  0.0000000000000D+00  0.0000000000000D+00
   173  1.7200000000000D+00  0.0000000000000D+00  0.0000000000000D+00
   174  1.7300000000000D+00  0.0000000000000D+00  0.0000000000000D+00
   175  1.7400000000000D+00  0.0000000000000D+00  0.0000000000000D+00
   176  1.7500000000000D+00  0.0000000000000D+00  0.0000000000000D+00
   177  1.7600000000000D+00  0.0000000000000D+00  0.0000000000000D+00
   178  1.7700000000000D+00  0.0000000000000D+00  0.0000000000000D+00
   179  1.7800000000000D+00  0.0000000000000D+00  0.0000000000000D+00
   180  1.7900000000000D+00  0.0000000000000D+00  0.0000000000000D+00
   181  1.8000000000000D+00  0.0000000000000D+00  0.0000000000000D+00
   182  1.8100000000000D+00  0.0000000000000D+00  0.0000000000000D+00
   183  1.8200000000000D+00  0.0000000000000D+00  0.0000000000000D+00
   184  1.8300000000000D+00  0.0000000000000D+00  0.0000000000000D+00
   185  1.8400000000000D+00  0.0000000000000D+00  0.0000000000000D+00
   186  1.8500000000000D+00  0.0000000000000D+00  0.0000000000000D+00
   187  1.8600000000000D+00  0.0000000000000D+00  0.0000000000000D+00
   188  1.8700000000000D+00  0.0000000000000D+00  0.0000000000000D+00
   189  1.8800000000000D+00  0.0000000000000D+00  0.0000000000000D+00
   190  1.8900000000000D+00  0.0000000000000D+00  0.0000000000000D+00
   191  1.9000000000000D+00  0.0000000000000D+00  0.0000000000000D+00
   192  1.9100000000000D+00  0.0000000000000D+00  0.0000000000000D+00
   193  1.9200000000000D+00  0.0000000000000D+00  0.0000000000000D+00
   194  1.9300000000000D+00  0.0000000000000D+00  0.0000000000000D+00
   195  1.9400000000000D+00  0.0000000000000D+00  0.0000000000000D+00
   196  1.9500000000000D+00  0.0000000000000D+00  0.0000000000000D+00
   197  1.9600000000000D+00  0.0000000000000D+00  0.0000000000000D+00
   198  1.9700000000000D+00  0.0000000000000D+00  0.0000000000000D+00
   199  1.9800000000000D+00  0.0000000000000D+00  0.0000000000000D+00
   200  1.9900000000000D+00  0.0000000000000D+00  0.0000000000000D+00
   201  2.0000000000000D+00  0.0000000000000D+00  0.0000000000000D+00
   202  2.0100000000000D+00  0.0000000000000D+00  0.0000000000000D+00
   203  2.0200000000000D+00  0.0000000000000D+00  0.0000000000000D+00
   204  2.0300000000000D+00  0.0000000000000D+00  0.0000000000000D+00
   205  2.0400000000000D+00  0.0000000000000D+00  0.0000000000000D+00
   206  2.0500000000000D+00  0.0000000000000D+00  0.0000000000000D+00
   207  2.0600000000000D+00  0.0000000000000D+00  0.0000000000000D+00
   208  2.0700000000000D+00  0.0000000000000D+00  0.0000000000000D+00
   209  2.0800000000000D+00  0.0000000000000D+00  0.0000000000000D+00
   210  2.0900000000000D+00  0.0000000000000D+00  0.0000000000000D+00
   211  2.1000000000000D+00  0.0000000000000D+00  0.0000000000000D+00
   212  2.1100000000000D+00  0.0000000000000D+00  0.0000000000000D+00
   213  2.1200000000000D+00  0.0000000000000D+00  0.0000000000000D+00
   214  2.1300000000000D+00  0.0000000000000D+00  0.0000000000000D+00
   215  2.1400000000000D+00  0.0000000000000D+00  0.0000000000000D+00
   216  2.1500000000000D+00  0.0000000000000D+00  0.0000000000000D+00
   217  2.1600000000000D+00  0.0000000000000D+00  0.0000000000000D+00
   218  2.1700000000000D+00  0.0000000000000D+00  0.0000000000000D+00
   219  2.1800000000000D+00  0.0000000000000D+00  0.0000000000000D+00
   220  2.1900000000000D+00  0.0000000000000D+00  0.0000000000000D+00
   221  2.2000000000000D+00  0.0000000000000D+00  0.0000000000000D+00
   222  2.2100000000000D+00  0.0000000000000D+00  0.0000000000000D+00
   223  2.2200000000000D+00  0.0000000000000D+00  0.0000000000000D+00
   224  2.2300000000000D+00  0.0000000000000D+00  0.0000000000000D+00
   225  2.2400000000000D+00  0.0000000000000D+00  0.0000000000000D+00
   226  2.2500000000000D+00  0.0000000000000D+00  0.0000000000000D+00
   227  2.2600000000000D+00  0.0000000000000D+00  0.0000000000000D+00
   228  2.2700000000000D+00  0.0000000000000D+00  0.0000000000000D+00
   229  2.2800000000000D+00  0.0000000000000D+00  0.0000000000000D+00
   230  2.2900000000000D+00  0.0000000000000D+00  0.0000000000000D+00
   231  2.3000000000000D+00  0.0000000000000D+00  0.0000000000000D+00
   232  2.3100000000000D+00  0.0000000000000D+00  0.0000000000000D+00
   233  2.3200000000000D+00  0.0000000000000D+00  0.0000000000000D+00
   234  2.3300000000000D+00  0.0000000000000D+00  0.0000000000000D+00
   235  2.3400000000000D+00  0.0000000000000D+00  0.0000000000000D+00
   236  2.3500000000000D+00  0.0000000000000D+00  0.0000000000000D+00
   237  2.3600000000000D+00  0.0000000000000D+00  0.0000000000000D+00
   238  2.3700000000000D+00  0.0000000000000D+00  0.0000000000000D+00
   239  2.3800000000000D+00  0.0000000000000D+00  0.0000000000000D+00
   240  2.3900000000000D+00  0.0000000000000D+00  0.0000000000000D+00
   241  2.4000000000000D+00  0.0000000000000D+00  0.0000000000000D+00
   242  2.4100000000000D+00  0.0000000000000D+00  0.0000000000000D+00
   243  2.4200000000000D+00  0.0000000000000D+00  0.0000000000000D+00
   244  2.4300000000000D+00  0.0000000000000D+00  0.0000000000000D+00
   245  2.4400000000000D+00  0.0000000000000D+00  0.0000000000000D+00
   246  2.4500000000000D+00  0.0000000000000D+00  0.0000000000000D+00
   247  2.4600000000000D+00  0.0000000000000D+00  0.0000000000000D+00
   248  2.4700000000000D+00  0.0000000000000D+00  0.0000000000000D+00
   249  2.4800000000000D+00  0.0000000000000D+00  0.0000000000000D+00
   250  2.4900000000000D+00  0.0000000000000D+00  0.0000000000000D+00
   251  2.5000000000000D+00  0.0000000000000D+00  0.0000000000000D+00
   252  2.5100000000000D+00  0.0000000000000D+00  0.0000000000000D+00
   253  2.5200000000000D+00  0.0000000000000D+00  0.0000000000000D+00
   254  2.5300000000000D+00  0.0000000000000D+00  0.0000000000000D+00
   255  2.5400000000000D+00  0.0000000000000D+00  0.0000000000000D+00
   256  2.5500000000000D+00  0.0000000000000D+00  0.0000000000000D+00
   257  2.5600000000000D+00  0.0000000000000D+00  0.0000000000000D+00
   258  2.5700000000000D+00  0.0000000000000D+00  0.0000000000000D+00
   259  2.5800000000000D+00  0.0000000000000D+00  0.0000000000000D+00
   260  2.5900000000000D+00  0.0000000000000D+00  0.0000000000000D+00
   261  2.6000000000000D+00  0.0000000000000D+00  0.0000000000000D+00
   262  2.6100000000000D+00  0.0000000000000D+00  0.0000000000000D+00
   263  2.6200000000000D+00  0.0000000000000D+00  0.0000000000000D+00
   264  2.6300000000000D+00  0.0000000000000D+00  0.0000000000000D+00
   265  2.6400000000000D+00  0.0000000000000D+00  0.0000000000000D+00
   266  2.6500000000000D+00  0.0000000000000D+00  0.0000000000000D+00
   267  2.6600000000000D+00  0.0000000000000D+00  0.0000000000000D+00
   268  2.6700000000000D+00  0.0000000000000D+00  0.0000000000000D+00
   269  2.6800000000000D+00  0.0000000000000D+00  0.0000000000000D+00
   270  2.6900000000000D+00  0.0000000000000D+00  0.0000000000000D+00
   271  2.7000000000000D+00  0.0000000000000D+00  0.0000000000000D+00
   272  2.7100000000000D+00  0.0000000000000D+00  0.0000000000000D+00
   273  2.7200000000000D+00  0.0000000000000D+00  0.0000000000000D+00
   274  2.7300000000000D+00  0.0000000000000D+00  0.0000000000000D+00
   275  2.7400000000000D+00  0.0000000000000D+00  0.0000000000000D+00
   276  2.7500000000000D+00  0.0000000000000D+00  0.0000000000000D+00
   277  2.7600000000000D+00  0.0000000000000D+00  0.0000000000000D+00
   278  2.7700000000000D+00  0.0000000000000D+00  0.0000000000000D+00
   279  2.7800000000000D+00  0.0000000000000D+00  0.0000000000000D+00
   280  2.7900000000000D+00  0.0000000000000D+00  0.0000000000000D+00
   281  2.8000000000000D+00  0.0000000000000D+00  0.0000000000000D+00
   282  2.8100000000000D+00  0.0000000000000D+00  0.0000000000000D+00
   283  2.8200000000000D+00  0.0000000000000D+00  0.0000000000000D+00
   284  2.8300000000000D+00  0.0000000000000D+00  0.0000000000000D+00
   285  2.8400000000000D+00  0.0000000000000D+00  0.0000000000000D+00
   286  2.8500000000000D+00  0.0000000000000D+00  0.0000000000000D+00
   287  2.8600000000000D+00  0.0000000000000D+00  0.0000000000000D+00
   288  2.8700000000000D+00  0.0000000000000D+00  0.0000000000000D+00
   289  2.8800000000000D+00  0.0000000000000D+00  0.0000000000000D+00
   290  2.8900000000000D+00  0.0000000000000D+00  0.0000000000000D+00
   291  2.9000000000000D+00  0.0000000000000D+00  0.0000000000000D+00
   292  2.9100000000000D+00  0.0000000000000D+00  0.0000000000000D+00
   293  2.9200000000000D+00  0.0000000000000D+00  0.0000000000000D+00
   294  2.9300000000000D+00  0.0000000000000D+00  0.0000000000000D+00
   295  2.9400000000000D+00  0.0000000000000D+00  0.0000000000000D+00
   296  2.9500000000000D+00  0.0000000000000D+00  0.0000000000000D+00
   297  2.9600000000000D+00  0.0000000000000D+00  0.0000000000000D+00
   298  2.9700000000000D+00  0.0000000000000D+00  0.0000000000000D+00
   299  2.9800000000000D+00  0.0000000000000D+00  0.0000000000000D+00
   300  2.9900000000000D+00  0.0000000000000D+00  0.0000000000000D+00
   301  3.0000000000000D+00  0.0000000000000D+00  0.0000000000000D+00
   302  3.0100000000000D+00  0.0000000000000D+00  0.0000000000000D+00
   303  3.0200000000000D+00  0.0000000000000D+00  0.0000000000000D+00
   304  3.0300000000000D+00  0.0000000000000D+00  0.0000000000000D+00
   305  3.0400000000000D+00  0.0000000000000D+00  0.0000000000000D+00
   306  3.0500000000000D+00  0.0000000000000D+00  0.0000000000000D+00
   307  3.0600000000000D+00  0.0000000000000D+00  0.0000000000000D+00
   308  3.0700000000000D+00  0.0000000000000D+00  0.0000000000000D+00
   309  3.0800000000000D+00  0.0000000000000D+00  0.0000000000000D+00
   310  3.0900000000000D+00  0.0000000000000D+00  0.0000000000000D+00
   311  3.1000000000000D+00  0.0000000000000D+00  0.0000000000000D+00
   312  3.1100000000000D+00  0.0000000000000D+00  0.0000000000000D+00
   313  3.1200000000000D+00  0.0000000000000D+00  0.0000000000000D+00
   314  3.1300000000000D+00  0.0000000000000D+00  0.0000000000000D+00
   315  3.1400000000000D+00  0.0000000000000D+00  0.0000000000000D+00
   316  3.1500000000000D+00  0.0000000000000D+00  0.0000000000000D+00
   317  3.1600000000000D+00  0.0000000000000D+00  0.0000000000000D+00
   318  3.1700000000000D+00  0.0000000000000D+00  0.0000000000000D+00
   319  3.1800000000000D+00  0.0000000000000D+00  0.0000000000000D+00
   320  3.1900000000000D+00  0.0000000000000D+00  0.0000000000000D+00
   321  3.2000000000000D+00  0.0000000000000D+00  0.0000000000000D+00
   322  3.2100000000000D+00  0.0000000000000D+00  0.0000000000000D+00
   323  3.2200000000000D+00  0.0000000000000D+00  0.0000000000000D+00
   324  3.2300000000000D+00  0.0000000000000D+00  0.0000000000000D+00
   325  3.2400000000000D+00  0.0000000000000D+00  0.0000000000000D+00
   326  3.2500000000000D+00  0.0000000000000D+00  0.0000000000000D+00
   327  3.2600000000000D+00  0.0000000000000D+00  0.0000000000000D+00
   328  3.2700000000000D+00  0.0000000000000D+00  0.0000000000000D+00
   329  3.2800000000000D+00  0.0000000000000D+00  0.0000000000000D+00
   330  3.2900000000000D+00  0.0000000000000D+00  0.0000000000000D+00
   331  3.3000000000000D+00  0.0000000000000D+00  0.0000000000000D+00
   332  3.3100000000000D+00  0.0000000000000D+00  0.0000000000000D+00
   333  3.3200000000000D+00  0.0000000000000D+00  0.0000000000000D+00
   334  3.3300000000000D+00  0.0000000000000D+00  0.0000000000000D+00
   335  3.3400000000000D+00  0.0000000000000D+00  0.0000000000000D+00
   336  3.3500000000000D+00  0.0000000000000D+00  0.0000000000000D+00
   337  3.3600000000000D+00  0.0000000000000D+00  0.0000000000000D+00
   338  3.3700000000000D+00  0.0000000000000D+00  0.0000000000000D+00
   339  3.3800000000000D+00  0.0000000000000D+00  0.0000000000000D+00
   340  3.3900000000000D+00  0.0000000000000D+00  0.0000000000000D+00
   341  3.4000000000000D+00  0.0000000000000D+00  0.0000000000000D+00
   342  3.4100000000000D+00  0.0000000000000D+00  0.0000000000000D+00
   343  3.4200000000000D+00  0.0000000000000D+00  0.0000000000000D+00
   344  3.4300000000000D+00  0.0000000000000D+00  0.0000000000000D+00
   345  3.4400000000000D+00  0.0000000000000D+00  0.0000000000000D+00
   346  3.4500000000000D+00  0.0000000000000D+00  0.0000000000000D+00
   347  3.4600000000000D+00  0.0000000000000D+00  0.0000000000000D+00
   348  3.4700000000000D+00  0.0000000000000D+00  0.0000000000000D+00
   349  3.4800000000000D+00  0.0000000000000D+00  0.0000000000000D+00
   350  3.4900000000000D+00  0.0000000000000D+00  0.0000000000000D+00
   351  3.5000000000000D+00  0.0000000000000D+00  0.0000000000000D+00
   352  3.5100000000000D+00  0.0000000000000D+00  0.0000000000000D+00
   353  3.5200000000000D+00  0.0000000000000D+00  0.0000000000000D+00
   354  3.5300000000000D+00  0.0000000000000D+00  0.0000000000000D+00
   355  3.5400000000000D+00  0.0000000000000D+00  0.0000000000000D+00
   356  3.5500000000000D+00  0.0000000000000D+00  0.0000000000000D+00
   357  3.5600000000000D+00  0.0000000000000D+00  0.0000000000000D+00
   358  3.5700000000000D+00  0.0000000000000D+00  0.0000000000000D+00
   359  3.5800000000000D+00  0.0000000000000D+00  0.0000000000000D+00
   360  3.5900000000000D+00  0.0000000000000D+00  0.0000000000000D+00
   361  3.6000000000000D+00  0.0000000000000D+00  0.0000000000000D+00
   362  3.6100000000000D+00  0.0000000000000D+00  0.0000000000000D+00
   363  3.6200000000000D+00  0.0000000000000D+00  0.0000000000000D+00
   364  3.6300000000000D+00  0.0000000000000D+00  0.0000000000000D+00
   365  3.6400000000000D+00  0.0000000000000D+00  0.0000000000000D+00
   366  3.6500000000000D+00  0.0000000000000D+00  0.0000000000000D+00
   367  3.6600000000000D+00  0.0000000000000D+00  0.0000000000000D+00
   368  3.6700000000000D+00  0.0000000000000D+00  0.0000000000000D+00
   369  3.6800000000000D+00  0.0000000000000D+00  0.0000000000000D+00
   370  3.6900000000000D+00  0.0000000000000D+00  0.0000000000000D+00
   371  3.7000000000000D+00  0.0000000000000D+00  0.0000000000000D+00
   372  3.7100000000000D+00  0.0000000000000D+00  0.0000000000000D+00
   373  3.7200000000000D+00  0.0000000000000D+00  0.0000000000000D+00
   374  3.7300000000000D+00  0.0000000000000D+00  0.0000000000000D+00
   375  3.7400000000000D+00  0.0000000000000D+00  0.0000000000000D+00
   376  3.7500000000000D+00  0.0000000000000D+00  0.0000000000000D+00
   377  3.7600000000000D+00  0.0000000000000D+00  0.0000000000000D+00
   378  3.7700000000000D+00  0.0000000000000D+00  0.0000000000000D+00
   379  3.7800000000000D+00  0.0000000000000D+00  0.0000000000000D+00
   380  3.7900000000000D+00  0.0000000000000D+00  0.0000000000000D+00
   381  3.8000000000000D+00  0.0000000000000D+00  0.0000000000000D+00
   382  3.8100000000000D+00  0.0000000000000D+00  0.0000000000000D+00
   383  3.8200000000000D+00  0.0000000000000D+00  0.0000000000000D+00
   384  3.8300000000000D+00  0.0000000000000D+00  0.0000000000000D+00
   385  3.8400000000000D+00  0.0000000000000D+00  0.0000000000000D+00
   386  3.8500000000000D+00  0.0000000000000D+00  0.0000000000000D+00
   387  3.8600000000000D+00  0.0000000000000D+00  0.0000000000000D+00
   388  3.8700000000000D+00  0.0000000000000D+00  0.0000000000000D+00
   389  3.8800000000000D+00  0.0000000000000D+00  0.0000000000000D+00
   390  3.8900000000000D+00  0.0000000000000D+00  0.0000000000000D+00
   391  3.9000000000000D+00  0.0000000000000D+00  0.0000000000000D+00
   392  3.9100000000000D+00  0.0000000000000D+00  0.0000000000000D+00
   393  3.9200000000000D+00  0.0000000000000D+00  0.0000000000000D+00
   394  3.9300000000000D+00  0.0000000000000D+00  0.0000000000000D+00
   395  3.9400000000000D+00  0.0000000000000D+00  0.0000000000000D+00
   396  3.9500000000000D+00  0.0000000000000D+00  0.0000000000000D+00
   397  3.9600000000000D+00  0.0000000000000D+00  0.0000000000000D+00
   398  3.9700000000000D+00  0.0000000000000D+00  0.0000000000000D+00
   399  3.9800000000000D+00  0.0000000000000D+00  0.0000000000000D+00
   400  3.9900000000000D+00  0.0000000000000D+00  0.0000000000000D+00
   401  4.0000000000000D+00  0.0000000000000D+00  0.0000000000000D+00
   402  4.0100000000000D+00  0.0000000000000D+00  0.0000000000000D+00
   403  4.0200000000000D+00  0.0000000000000D+00  0.0000000000000D+00
   404  4.0300000000000D+00  0.0000000000000D+00  0.0000000000000D+00
   405  4.0400000000000D+00  0.0000000000000D+00  0.0000000000000D+00
   406  4.0500000000000D+00  0.0000000000000D+00  0.0000000000000D+00
   407  4.0600000000000D+00  0.0000000000000D+00  0.0000000000000D+00
   408  4.0700000000000D+00  0.0000000000000D+00  0.0000000000000D+00
   409  4.0800000000000D+00  0.0000000000000D+00  0.0000000000000D+00
   410  4.0900000000000D+00  0.0000000000000D+00  0.0000000000000D+00
   411  4.1000000000000D+00  0.0000000000000D+00  0.0000000000000D+00
   412  4.1100000000000D+00  0.0000000000000D+00  0.0000000000000D+00
   413  4.1200000000000D+00  0.0000000000000D+00  0.0000000000000D+00
   414  4.1300000000000D+00  0.0000000000000D+00  0.0000000000000D+00
   415  4.1400000000000D+00  0.0000000000000D+00  0.0000000000000D+00
   416  4.1500000000000D+00  0.0000000000000D+00  0.0000000000000D+00
   417  4.1600000000000D+00  0.0000000000000D+00  0.0000000000000D+00
   418  4.1700000000000D+00  0.0000000000000D+00  0.0000000000000D+00
   419  4.1800000000000D+00  0.0000000000000D+00  0.0000000000000D+00
   420  4.1900000000000D+00  0.0000000000000D+00  0.0000000000000D+00
   421  4.2000000000000D+00  0.0000000000000D+00  0.0000000000000D+00
   422  4.2100000000000D+00  0.0000000000000D+00  0.0000000000000D+00