I     ONCVPSP-3.3.0  r_core=   1.97279   1.85857   1.85857
     53.0000     17.0000      220117    zatom,zion,pspd
     8      11   2     4   600     0    pspcod,pspxc,lmax,lloc,mmax,r2well
  5.99000000  0.00000000  0.00000000    rchrg fchrg qchrg
     2     2     2     0     0    nproj
     1     1           extension_switch
   0                         7.2625415154563D+00  1.2850470578224D+00
     1  0.0000000000000D+00  9.2772872717362D-12 -4.9496629017654D-11
     2  1.0000000000000D-02  1.0442598579648D-02  2.7355723140744D-02
     3  2.0000000000000D-02  2.0927908570363D-02  5.4564948152526D-02
     4  3.0000000000000D-02  3.1498446841040D-02  8.1481872767452D-02
     5  4.0000000000000D-02  4.2196341879053D-02  1.0796208339586D-01
     6  5.0000000000000D-02  5.3063141354210D-02  1.3386324186814D-01
     7  6.0000000000000D-02  6.4139621781854D-02  1.5904576309475D-01
     8  7.0000000000000D-02  7.5465600973984D-02  1.8337348067498D-01
     9  8.0000000000000D-02  8.7079753958018D-02  2.0671429753490D-01
    10  9.0000000000000D-02  9.9019433031310D-02  2.2894081873589D-01
    11  1.0000000000000D-01  1.1132049260575D-01  2.4993096366878D-01
    12  1.1000000000000D-01  1.2401711948087D-01  2.6956855493345D-01
    13  1.2000000000000D-01  1.3714166916575D-01  2.8774388129964D-01
    14  1.3000000000000D-01  1.5072450884985D-01  3.0435423225171D-01
    15  1.4000000000000D-01  1.6479386760051D-01  3.1930440173780D-01
    16  1.5000000000000D-01  1.7937569434091D-01  3.3250715887087D-01
    17  1.6000000000000D-01  1.9449352413583D-01  3.4388368346681D-01
    18  1.7000000000000D-01  2.1016835328476D-01  3.5336396445049D-01
    19  1.8000000000000D-01  2.2641852369212D-01  3.6088715931570D-01
    20  1.9000000000000D-01  2.4325961695289D-01  3.6640191298768D-01
    21  2.0000000000000D-01  2.6070435855906D-01  3.6986663460666D-01
    22  2.1000000000000D-01  2.7876253259778D-01  3.7124973092824D-01
    23  2.2000000000000D-01  2.9744090727612D-01  3.7052979521866D-01
    24  2.3000000000000D-01  3.1674317157052D-01  3.6769575071165D-01
    25  2.4000000000000D-01  3.3666988326040D-01  3.6274694788616D-01
    26  2.5000000000000D-01  3.5721842856631D-01  3.5569321502085D-01
    27  2.6000000000000D-01  3.7838299357269D-01  3.4655486168116D-01
    28  2.7000000000000D-01  4.0015454757422D-01  3.3536263499665D-01
    29  2.8000000000000D-01  4.2252083844318D-01  3.2215762878973D-01
    30  2.9000000000000D-01  4.4546640007293D-01  3.0699114582141D-01
    31  3.0000000000000D-01  4.6897257191008D-01  2.8992451362324D-01
    32  3.1000000000000D-01  4.9301753054507D-01  2.7102885458785D-01
    33  3.2000000000000D-01  5.1757633328792D-01  2.5038481119153D-01
    34  3.3000000000000D-01  5.4262097361311D-01  2.2808222742075D-01
    35  3.4000000000000D-01  5.6812044831465D-01  2.0421978766899D-01
    36  3.5000000000000D-01  5.9404083617038D-01  1.7890461456125D-01
    37  3.6000000000000D-01  6.2034538787229D-01  1.5225182734809D-01
    38  3.7000000000000D-01  6.4699462693876D-01  1.2438406269067D-01
    39  3.8000000000000D-01  6.7394646128407D-01  9.5430959830252D-02
    40  3.9000000000000D-01  7.0115630508095D-01  6.5528612300059D-02
    41  4.0000000000000D-01  7.2857721051390D-01  3.4818988493778D-02
    42  4.1000000000000D-01  7.5616000898337D-01  3.4493235517415D-03
    43  4.2000000000000D-01  7.8385346128571D-01 -2.8428514837180D-02
    44  4.3000000000000D-01  8.1160441625904D-01 -6.0658683993117D-02
    45  4.4000000000000D-01  8.3935797735308D-01 -9.3082044322504D-02
    46  4.5000000000000D-01  8.6705767654987D-01 -1.2553685497158D-01
    47  4.6000000000000D-01  8.9464565503375D-01 -1.5785948402157D-01
    48  4.7000000000000D-01  9.2206284998197D-01 -1.8988513011285D-01
    49  4.8000000000000D-01  9.4924918682279D-01 -2.2144855232032D-01
    50  4.9000000000000D-01  9.7614377628573D-01 -2.5238480505113D-01
    51  5.0000000000000D-01  1.0026851155482D+00 -2.8252997469880D-01
    52  5.1000000000000D-01  1.0288112927662D+00 -3.1172191476513D-01
    53  5.2000000000000D-01  1.0544601942602D+00 -3.3980097615308D-01
    54  5.3000000000000D-01  1.0795697136176D+00 -3.6661072934074D-01
    55  5.4000000000000D-01  1.1040779619604D+00 -3.9199867516778D-01
    56  5.5000000000000D-01  1.1279234786231D+00 -4.1581694100268D-01
    57  5.6000000000000D-01  1.1510454414798D+00 -4.3792295911025D-01
    58  5.7000000000000D-01  1.1733838761580D+00 -4.5818012410521D-01
    59  5.8000000000000D-01  1.1948798633814D+00 -4.7645842645850D-01
    60  5.9000000000000D-01  1.2154757436847D+00 -4.9263505911830D-01
    61  6.0000000000000D-01  1.2351153187535D+00 -5.0659499441698D-01
    62  6.1000000000000D-01  1.2537440486522D+00 -5.1823152855840D-01
    63  6.2000000000000D-01  1.2713092442160D+00 -5.2744679111608D-01
    64  6.3000000000000D-01  1.2877602538993D+00 -5.3415221712188D-01
    65  6.4000000000000D-01  1.3030486443919D+00 -5.3826897948631D-01
    66  6.5000000000000D-01  1.3171283743354D+00 -5.3972837966352D-01
    67  6.6000000000000D-01  1.3299559604979D+00 -5.3847219465835D-01
    68  6.7000000000000D-01  1.3414906357904D+00 -5.3445297866570D-01
    69  6.8000000000000D-01  1.3516944985392D+00 -5.2763431783528D-01
    70  6.9000000000000D-01  1.3605326524591D+00 -5.1799103686571D-01
    71  7.0000000000000D-01  1.3679733368068D+00 -5.0550935635020D-01
    72  7.1000000000000D-01  1.3739880462311D+00 -4.9018700002102D-01
    73  7.2000000000000D-01  1.3785516398723D+00 -4.7203325126880D-01
    74  7.3000000000000D-01  1.3816424393059D+00 -4.5106895854837D-01
    75  7.4000000000000D-01  1.3832423149649D+00 -4.2732648951907D-01
    76  7.5000000000000D-01  1.3833367607212D+00 -4.0084963400746D-01
    77  7.6000000000000D-01  1.3819149563478D+00 -3.7169345612024D-01
    78  7.7000000000000D-01  1.3789698176326D+00 -3.3992409607542D-01
    79  7.8000000000000D-01  1.3744980339590D+00 -3.0561852255823D-01
    80  7.9000000000000D-01  1.3685000932161D+00 -2.6886423664341D-01
    81  8.0000000000000D-01  1.3609802939529D+00 -2.2975892855881D-01
    82  8.1000000000000D-01  1.3519467447331D+00 -1.8841008879079D-01
    83  8.2000000000000D-01  1.3414113507032D+00 -1.4493457525342D-01
    84  8.3000000000000D-01  1.3293897874285D+00 -9.9458138456621D-02
    85  8.4000000000000D-01  1.3159014621050D+00 -5.2114906813101D-02
    86  8.5000000000000D-01  1.3009694623017D+00 -3.0468344198446D-03
    87  8.6000000000000D-01  1.2846204924326D+00  4.7596886166106D-02
    88  8.7000000000000D-01  1.2668847982093D+00  9.9660443464013D-02
    89  8.8000000000000D-01  1.2477960793661D+00  1.5298205606420D-01
    90  8.9000000000000D-01  1.2273913909958D+00  2.0739464808030D-01
    91  9.0000000000000D-01  1.2057110338768D+00  2.6272654792502D-01
    92  9.1000000000000D-01  1.1827984342133D+00  3.1880220715811D-01
    93  9.2000000000000D-01  1.1587000132501D+00  3.7544293605274D-01
    94  9.3000000000000D-01  1.1334650472591D+00  4.3246765244140D-01
    95  9.4000000000000D-01  1.1071455184325D+00  4.8969364033297D-01
    96  9.5000000000000D-01  1.0797959572489D+00  5.4693731474231D-01
    97  9.6000000000000D-01  1.0514732769085D+00  6.0401498913924D-01
    98  9.7000000000000D-01  1.0222366004635D+00  6.6074364190805D-01
    99  9.8000000000000D-01  9.9214708129292D-01  7.1694167821227D-01
   100  9.9000000000000D-01  9.6126771759476D-01  7.7242968367914D-01
   101  1.0000000000000D+00  9.2966316158771D-01  8.2703116635777D-01
   102  1.0100000000000D+00  8.9739952413072D-01  8.8057328346159D-01
   103  1.0200000000000D+00  8.6454417548319D-01  9.3288754948350D-01
   104  1.0300000000000D+00  8.3116554293785D-01  9.8381052235917D-01
   105  1.0400000000000D+00  7.9733290606694D-01  1.0331844644693D+00
   106  1.0500000000000D+00  7.6311619032600D-01  1.0808579753957D+00
   107  1.0600000000000D+00  7.2858575976055D-01  1.1266865934883D+00
   108  1.0700000000000D+00  6.9381220955939D-01  1.1705333634611D+00
   109  1.0800000000000D+00  6.5886615919257D-01  1.2122693674061D+00
   110  1.0900000000000D+00  6.2381804686506D-01  1.2517742167917D+00
   111  1.1000000000000D+00  5.8873792600466D-01  1.2889365032307D+00
   112  1.1100000000000D+00  5.5369526449017D-01  1.3236542059925D+00
   113  1.1200000000000D+00  5.1875874730617D-01  1.3558350544852D+00
   114  1.1300000000000D+00  4.8399608329627D-01  1.3853968441127D+00
   115  1.1400000000000D+00  4.4947381665925D-01  1.4122677042100D+00
   116  1.1500000000000D+00  4.1525714381128D-01  1.4363863169636D+00
   117  1.1600000000000D+00  3.8140973620557D-01  1.4577020865241D+00
   118  1.1700000000000D+00  3.4799356968169D-01  1.4761752576833D+00
   119  1.1800000000000D+00  3.1506876087396D-01  1.4917769838538D+00
   120  1.1900000000000D+00  2.8269341118083D-01  1.5044893442919D+00
   121  1.2000000000000D+00  2.5092345876037D-01  1.5143053107819D+00
   122  1.2100000000000D+00  2.1981253898858D-01  1.5212286642104D+00
   123  1.2200000000000D+00  1.8941185376641D-01  1.5252738618050D+00
   124  1.2300000000000D+00  1.5977005002392D-01  1.5264658560394D+00
   125  1.2400000000000D+00  1.3093310775232D-01  1.5248398663328D+00
   126  1.2500000000000D+00  1.0294423782328D-01  1.5204411050995D+00
   127  1.2600000000000D+00  7.5843789824008D-02  1.5133244598528D+00
   128  1.2700000000000D+00  4.9669170116095D-02  1.5035541331972D+00
   129  1.2800000000000D+00  2.4454770256690D-02  1.4912032429046D+00
   130  1.2900000000000D+00  2.3190588012657D-04  1.4763533844344D+00
   131  1.3000000000000D+00 -2.2971233869422D-02  1.4590941583108D+00
   132  1.3100000000000D+00 -4.5129626342089D-02  1.4395226651175D+00
   133  1.3200000000000D+00 -6.6221444850748D-02  1.4177429709799D+00
   134  1.3300000000000D+00 -8.6228077620520D-02  1.3938655463999D+00
   135  1.3400000000000D+00 -1.0513413634141D-01  1.3680066816653D+00
   136  1.3500000000000D+00 -1.2292745445168D-01  1.3402878820017D+00
   137  1.3600000000000D+00 -1.3959907528243D-01  1.3108352457201D+00
   138  1.3700000000000D+00 -1.5514323030547D-01  1.2797788288059D+00
   139  1.3800000000000D+00 -1.6955730768500D-01  1.2472519992884D+00
   140  1.3900000000000D+00 -1.8284181139214D-01  1.2133907848897D+00
   141  1.4000000000000D+00 -1.9500031120451D-01  1.1783332173558D+00
   142  1.4100000000000D+00 -2.0603938385638D-01  1.1422186769625D+00
   143  1.4200000000000D+00 -2.1596854572634D-01  1.1051872405833D+00
   144  1.4300000000000D+00 -2.2480017740334D-01  1.0673790366460D+00
   145  1.4400000000000D+00 -2.3254944050795D-01  1.0289336104251D+00
   146  1.4500000000000D+00 -2.3923418720192D-01  9.8998930259982D-01
   147  1.4600000000000D+00 -2.4487486275995D-01  9.5068264456209D-01
   148  1.4700000000000D+00 -2.4949440167706D-01  9.1114777309604D-01
   149  1.4800000000000D+00 -2.5311811772391D-01  8.7151586749410D-01
   150  1.4900000000000D+00 -2.5577358841702D-01  8.3191461182970D-01
   151  1.5000000000000D+00 -2.5749053435608D-01  7.9246768457445D-01
   152  1.5100000000000D+00 -2.5830069389184D-01  7.5329427856232D-01
   153  1.5200000000000D+00 -2.5823769358609D-01  7.1450865248782D-01
   154  1.5300000000000D+00 -2.5733691493490D-01  6.7621971700590D-01
   155  1.5400000000000D+00 -2.5563535780617D-01  6.3853065603147D-01
   156  1.5500000000000D+00 -2.5317150106075D-01  6.0153858564775D-01
   157  1.5600000000000D+00 -2.4998516080195D-01  5.6533425127448D-01
   158  1.5700000000000D+00 -2.4611734669464D-01  5.3000176434633D-01
   159  1.5800000000000D+00 -2.4161011680623D-01  4.9561837942870D-01
   160  1.5900000000000D+00 -2.3650643135520D-01  4.6225431172229D-01
   161  1.6000000000000D+00 -2.3085000583980D-01  4.2997259620396D-01
   162  1.6100000000000D+00 -2.2468516385487D-01  3.9882898704167D-01
   163  1.6200000000000D+00 -2.1805669009742D-01  3.6887189881232D-01
   164  1.6300000000000D+00 -2.1100968377747D-01  3.4014238693217D-01
   165  1.6400000000000D+00 -2.0358941296422D-01  3.1267416900439D-01
   166  1.6500000000000D+00 -1.9584116998751D-01  2.8649368343843D-01
   167  1.6600000000000D+00 -1.8781012844566D-01  2.6162018702100D-01
   168  1.6700000000000D+00 -1.7954120185826D-01  2.3806588710576D-01
   169  1.6800000000000D+00 -1.7107890450625D-01  2.1583610968272D-01
   170  1.6900000000000D+00 -1.6246721444224D-01  1.9492949873051D-01
   171  1.7000000000000D+00 -1.5374943918967D-01  1.7533824751959D-01
   172  1.7100000000000D+00 -1.4496808406000D-01  1.5704835712797D-01
   173  1.7200000000000D+00 -1.3616472358749D-01  1.4003992228078D-01
   174  1.7300000000000D+00 -1.2737987595320D-01  1.2428743972093D-01
   175  1.7400000000000D+00 -1.1865288088269D-01  1.0976013865756D-01
   176  1.7500000000000D+00 -1.1002178083816D-01  9.6422328648365D-02
   177  1.7600000000000D+00 -1.0152320494969D-01  8.4233759866996D-02
   178  1.7700000000000D+00 -9.3192262199800D-02  7.3150017383131D-02
   179  1.7800000000000D+00 -8.5062418734035D-02  6.3122850873434D-02
   180  1.7900000000000D+00 -7.7165431045143D-02  5.4100702956625D-02
   181  1.8000000000000D+00 -6.9531220564121D-02  4.6029018160803D-02
   182  1.8100000000000D+00 -6.2187703006507D-02  3.8850344579473D-02
   183  1.8200000000000D+00 -5.5160819752183D-02  3.2505201256983D-02
   184  1.8300000000000D+00 -4.8474614855996D-02  2.6933117961886D-02
   185  1.8400000000000D+00 -4.2151296143924D-02  2.2073523056245D-02
   186  1.8500000000000D+00 -3.6211352101318D-02  1.7866763658763D-02
   187  1.8600000000000D+00 -3.0673633235084D-02  1.4254969741453D-02
   188  1.8700000000000D+00 -2.5555256387817D-02  1.1182190642541D-02
   189  1.8800000000000D+00 -2.0871552488637D-02  8.5946476873539D-03
   190  1.8900000000000D+00 -1.6636080499868D-02  6.4412455233077D-03
   191  1.9000000000000D+00 -1.2860589344446D-02  4.6738292085383D-03
   192  1.9100000000000D+00 -9.5569393023947D-03  3.2477099464591D-03
   193  1.9200000000000D+00 -6.7295570641141D-03  2.1211007188313D-03
   194  1.9300000000000D+00 -4.3774341860317D-03  1.2560878779527D-03
   195  1.9400000000000D+00 -2.5135340719229D-03  6.1950851005553D-04
   196  1.9500000000000D+00 -1.1680391281386D-03  1.8235952487394D-04
   197  1.9600000000000D+00 -3.4052255929338D-04 -8.4459951020512D-05
   198  1.9700000000000D+00  5.8200061380750D-05 -1.9352262413955D-04
   199  1.9800000000000D+00  1.4286815710559D-04 -1.6132812918083D-04
   200  1.9900000000000D+00  6.6558729939777D-05 -6.1207773395845D-05
   201  2.0000000000000D+00 -1.8207688726358D-05  1.5800032399369D-05
   202  2.0100000000000D+00 -3.0181243955962D-05  2.4822435112565D-05
   203  2.0200000000000D+00 -1.4775477809086D-06  1.1750854929441D-06
   204  2.0300000000000D+00  6.2401885434024D-06 -5.7825476370963D-06
   205  2.0400000000000D+00  3.3845257611997D-06 -3.0745342677531D-06
   206  2.0500000000000D+00 -2.1288657003008D-07  3.9087096738071D-07
   207  2.0600000000000D+00 -2.7527074820655D-07  5.0541160782431D-07
   208  2.0700000000000D+00  0.0000000000000D+00  0.0000000000000D+00
   209  2.0800000000000D+00  0.0000000000000D+00  0.0000000000000D+00
   210  2.0900000000000D+00  0.0000000000000D+00  0.0000000000000D+00
   211  2.1000000000000D+00  0.0000000000000D+00  0.0000000000000D+00
   212  2.1100000000000D+00  0.0000000000000D+00  0.0000000000000D+00
   213  2.1200000000000D+00  0.0000000000000D+00  0.0000000000000D+00
   214  2.1300000000000D+00  0.0000000000000D+00  0.0000000000000D+00
   215  2.1400000000000D+00  0.0000000000000D+00  0.0000000000000D+00
   216  2.1500000000000D+00  0.0000000000000D+00  0.0000000000000D+00
   217  2.1600000000000D+00  0.0000000000000D+00  0.0000000000000D+00
   218  2.1700000000000D+00  0.0000000000000D+00  0.0000000000000D+00
   219  2.1800000000000D+00  0.0000000000000D+00  0.0000000000000D+00
   220  2.1900000000000D+00  0.0000000000000D+00  0.0000000000000D+00
   221  2.2000000000000D+00  0.0000000000000D+00  0.0000000000000D+00
   222  2.2100000000000D+00  0.0000000000000D+00  0.0000000000000D+00
   223  2.2200000000000D+00  0.0000000000000D+00  0.0000000000000D+00
   224  2.2300000000000D+00  0.0000000000000D+00  0.0000000000000D+00
   225  2.2400000000000D+00  0.0000000000000D+00  0.0000000000000D+00
   226  2.2500000000000D+00  0.0000000000000D+00  0.0000000000000D+00
   227  2.2600000000000D+00  0.0000000000000D+00  0.0000000000000D+00
   228  2.2700000000000D+00  0.0000000000000D+00  0.0000000000000D+00
   229  2.2800000000000D+00  0.0000000000000D+00  0.0000000000000D+00
   230  2.2900000000000D+00  0.0000000000000D+00  0.0000000000000D+00
   231  2.3000000000000D+00  0.0000000000000D+00  0.0000000000000D+00
   232  2.3100000000000D+00  0.0000000000000D+00  0.0000000000000D+00
   233  2.3200000000000D+00  0.0000000000000D+00  0.0000000000000D+00
   234  2.3300000000000D+00  0.0000000000000D+00  0.0000000000000D+00
   235  2.3400000000000D+00  0.0000000000000D+00  0.0000000000000D+00
   236  2.3500000000000D+00  0.0000000000000D+00  0.0000000000000D+00
   237  2.3600000000000D+00  0.0000000000000D+00  0.0000000000000D+00
   238  2.3700000000000D+00  0.0000000000000D+00  0.0000000000000D+00
   239  2.3800000000000D+00  0.0000000000000D+00  0.0000000000000D+00
   240  2.3900000000000D+00  0.0000000000000D+00  0.0000000000000D+00
   241  2.4000000000000D+00  0.0000000000000D+00  0.0000000000000D+00
   242  2.4100000000000D+00  0.0000000000000D+00  0.0000000000000D+00
   243  2.4200000000000D+00  0.0000000000000D+00  0.0000000000000D+00
   244  2.4300000000000D+00  0.0000000000000D+00  0.0000000000000D+00
   245  2.4400000000000D+00  0.0000000000000D+00  0.0000000000000D+00
   246  2.4500000000000D+00  0.0000000000000D+00  0.0000000000000D+00
   247  2.4600000000000D+00  0.0000000000000D+00  0.0000000000000D+00
   248  2.4700000000000D+00  0.0000000000000D+00  0.0000000000000D+00
   249  2.4800000000000D+00  0.0000000000000D+00  0.0000000000000D+00
   250  2.4900000000000D+00  0.0000000000000D+00  0.0000000000000D+00
   251  2.5000000000000D+00  0.0000000000000D+00  0.0000000000000D+00
   252  2.5100000000000D+00  0.0000000000000D+00  0.0000000000000D+00
   253  2.5200000000000D+00  0.0000000000000D+00  0.0000000000000D+00
   254  2.5300000000000D+00  0.0000000000000D+00  0.0000000000000D+00
   255  2.5400000000000D+00  0.0000000000000D+00  0.0000000000000D+00
   256  2.5500000000000D+00  0.0000000000000D+00  0.0000000000000D+00
   257  2.5600000000000D+00  0.0000000000000D+00  0.0000000000000D+00
   258  2.5700000000000D+00  0.0000000000000D+00  0.0000000000000D+00
   259  2.5800000000000D+00  0.0000000000000D+00  0.0000000000000D+00
   260  2.5900000000000D+00  0.0000000000000D+00  0.0000000000000D+00
   261  2.6000000000000D+00  0.0000000000000D+00  0.0000000000000D+00
   262  2.6100000000000D+00  0.0000000000000D+00  0.0000000000000D+00
   263  2.6200000000000D+00  0.0000000000000D+00  0.0000000000000D+00
   264  2.6300000000000D+00  0.0000000000000D+00  0.0000000000000D+00
   265  2.6400000000000D+00  0.0000000000000D+00  0.0000000000000D+00
   266  2.6500000000000D+00  0.0000000000000D+00  0.0000000000000D+00
   267  2.6600000000000D+00  0.0000000000000D+00  0.0000000000000D+00
   268  2.6700000000000D+00  0.0000000000000D+00  0.0000000000000D+00
   269  2.6800000000000D+00  0.0000000000000D+00  0.0000000000000D+00
   270  2.6900000000000D+00  0.0000000000000D+00  0.0000000000000D+00
   271  2.7000000000000D+00  0.0000000000000D+00  0.0000000000000D+00
   272  2.7100000000000D+00  0.0000000000000D+00  0.0000000000000D+00
   273  2.7200000000000D+00  0.0000000000000D+00  0.0000000000000D+00
   274  2.7300000000000D+00  0.0000000000000D+00  0.0000000000000D+00
   275  2.7400000000000D+00  0.0000000000000D+00  0.0000000000000D+00
   276  2.7500000000000D+00  0.0000000000000D+00  0.0000000000000D+00
   277  2.7600000000000D+00  0.0000000000000D+00  0.0000000000000D+00
   278  2.7700000000000D+00  0.0000000000000D+00  0.0000000000000D+00
   279  2.7800000000000D+00  0.0000000000000D+00  0.0000000000000D+00
   280  2.7900000000000D+00  0.0000000000000D+00  0.0000000000000D+00
   281  2.8000000000000D+00  0.0000000000000D+00  0.0000000000000D+00
   282  2.8100000000000D+00  0.0000000000000D+00  0.0000000000000D+00
   283  2.8200000000000D+00  0.0000000000000D+00  0.0000000000000D+00
   284  2.8300000000000D+00  0.0000000000000D+00  0.0000000000000D+00
   285  2.8400000000000D+00  0.0000000000000D+00  0.0000000000000D+00
   286  2.8500000000000D+00  0.0000000000000D+00  0.0000000000000D+00
   287  2.8600000000000D+00  0.0000000000000D+00  0.0000000000000D+00
   288  2.8700000000000D+00  0.0000000000000D+00  0.0000000000000D+00
   289  2.8800000000000D+00  0.0000000000000D+00  0.0000000000000D+00
   290  2.8900000000000D+00  0.0000000000000D+00  0.0000000000000D+00
   291  2.9000000000000D+00  0.0000000000000D+00  0.0000000000000D+00
   292  2.9100000000000D+00  0.0000000000000D+00  0.0000000000000D+00
   293  2.9200000000000D+00  0.0000000000000D+00  0.0000000000000D+00
   294  2.9300000000000D+00  0.0000000000000D+00  0.0000000000000D+00
   295  2.9400000000000D+00  0.0000000000000D+00  0.0000000000000D+00
   296  2.9500000000000D+00  0.0000000000000D+00  0.0000000000000D+00
   297  2.9600000000000D+00  0.0000000000000D+00  0.0000000000000D+00
   298  2.9700000000000D+00  0.0000000000000D+00  0.0000000000000D+00
   299  2.9800000000000D+00  0.0000000000000D+00  0.0000000000000D+00
   300  2.9900000000000D+00  0.0000000000000D+00  0.0000000000000D+00
   301  3.0000000000000D+00  0.0000000000000D+00  0.0000000000000D+00
   302  3.0100000000000D+00  0.0000000000000D+00  0.0000000000000D+00
   303  3.0200000000000D+00  0.0000000000000D+00  0.0000000000000D+00
   304  3.0300000000000D+00  0.0000000000000D+00  0.0000000000000D+00
   305  3.0400000000000D+00  0.0000000000000D+00  0.0000000000000D+00
   306  3.0500000000000D+00  0.0000000000000D+00  0.0000000000000D+00
   307  3.0600000000000D+00  0.0000000000000D+00  0.0000000000000D+00
   308  3.0700000000000D+00  0.0000000000000D+00  0.0000000000000D+00
   309  3.0800000000000D+00  0.0000000000000D+00  0.0000000000000D+00
   310  3.0900000000000D+00  0.0000000000000D+00  0.0000000000000D+00
   311  3.1000000000000D+00  0.0000000000000D+00  0.0000000000000D+00
   312  3.1100000000000D+00  0.0000000000000D+00  0.0000000000000D+00
   313  3.1200000000000D+00  0.0000000000000D+00  0.0000000000000D+00
   314  3.1300000000000D+00  0.0000000000000D+00  0.0000000000000D+00
   315  3.1400000000000D+00  0.0000000000000D+00  0.0000000000000D+00
   316  3.1500000000000D+00  0.0000000000000D+00  0.0000000000000D+00
   317  3.1600000000000D+00  0.0000000000000D+00  0.0000000000000D+00
   318  3.1700000000000D+00  0.0000000000000D+00  0.0000000000000D+00
   319  3.1800000000000D+00  0.0000000000000D+00  0.0000000000000D+00
   320  3.1900000000000D+00  0.0000000000000D+00  0.0000000000000D+00
   321  3.2000000000000D+00  0.0000000000000D+00  0.0000000000000D+00
   322  3.2100000000000D+00  0.0000000000000D+00  0.0000000000000D+00
   323  3.2200000000000D+00  0.0000000000000D+00  0.0000000000000D+00
   324  3.2300000000000D+00  0.0000000000000D+00  0.0000000000000D+00
   325  3.2400000000000D+00  0.0000000000000D+00  0.0000000000000D+00
   326  3.2500000000000D+00  0.0000000000000D+00  0.0000000000000D+00
   327  3.2600000000000D+00  0.0000000000000D+00  0.0000000000000D+00
   328  3.2700000000000D+00  0.0000000000000D+00  0.0000000000000D+00
   329  3.2800000000000D+00  0.0000000000000D+00  0.0000000000000D+00
   330  3.2900000000000D+00  0.0000000000000D+00  0.0000000000000D+00
   331  3.3000000000000D+00  0.0000000000000D+00  0.0000000000000D+00
   332  3.3100000000000D+00  0.0000000000000D+00  0.0000000000000D+00
   333  3.3200000000000D+00  0.0000000000000D+00  0.0000000000000D+00
   334  3.3300000000000D+00  0.0000000000000D+00  0.0000000000000D+00
   335  3.3400000000000D+00  0.0000000000000D+00  0.0000000000000D+00
   336  3.3500000000000D+00  0.0000000000000D+00  0.0000000000000D+00
   337  3.3600000000000D+00  0.0000000000000D+00  0.0000000000000D+00
   338  3.3700000000000D+00  0.0000000000000D+00  0.0000000000000D+00
   339  3.3800000000000D+00  0.0000000000000D+00  0.0000000000000D+00
   340  3.3900000000000D+00  0.0000000000000D+00  0.0000000000000D+00
   341  3.4000000000000D+00  0.0000000000000D+00  0.0000000000000D+00
   342  3.4100000000000D+00  0.0000000000000D+00  0.0000000000000D+00
   343  3.4200000000000D+00  0.0000000000000D+00  0.0000000000000D+00
   344  3.4300000000000D+00  0.0000000000000D+00  0.0000000000000D+00
   345  3.4400000000000D+00  0.0000000000000D+00  0.0000000000000D+00
   346  3.4500000000000D+00  0.0000000000000D+00  0.0000000000000D+00
   347  3.4600000000000D+00  0.0000000000000D+00  0.0000000000000D+00
   348  3.4700000000000D+00  0.0000000000000D+00  0.0000000000000D+00
   349  3.4800000000000D+00  0.0000000000000D+00  0.0000000000000D+00
   350  3.4900000000000D+00  0.0000000000000D+00  0.0000000000000D+00
   351  3.5000000000000D+00  0.0000000000000D+00  0.0000000000000D+00
   352  3.5100000000000D+00  0.0000000000000D+00  0.0000000000000D+00
   353  3.5200000000000D+00  0.0000000000000D+00  0.0000000000000D+00
   354  3.5300000000000D+00  0.0000000000000D+00  0.0000000000000D+00
   355  3.5400000000000D+00  0.0000000000000D+00  0.0000000000000D+00
   356  3.5500000000000D+00  0.0000000000000D+00  0.0000000000000D+00
   357  3.5600000000000D+00  0.0000000000000D+00  0.0000000000000D+00
   358  3.5700000000000D+00  0.0000000000000D+00  0.0000000000000D+00
   359  3.5800000000000D+00  0.0000000000000D+00  0.0000000000000D+00
   360  3.5900000000000D+00  0.0000000000000D+00  0.0000000000000D+00
   361  3.6000000000000D+00  0.0000000000000D+00  0.0000000000000D+00
   362  3.6100000000000D+00  0.0000000000000D+00  0.0000000000000D+00
   363  3.6200000000000D+00  0.0000000000000D+00  0.0000000000000D+00
   364  3.6300000000000D+00  0.0000000000000D+00  0.0000000000000D+00
   365  3.6400000000000D+00  0.0000000000000D+00  0.0000000000000D+00
   366  3.6500000000000D+00  0.0000000000000D+00  0.0000000000000D+00
   367  3.6600000000000D+00  0.0000000000000D+00  0.0000000000000D+00
   368  3.6700000000000D+00  0.0000000000000D+00  0.0000000000000D+00
   369  3.6800000000000D+00  0.0000000000000D+00  0.0000000000000D+00
   370  3.6900000000000D+00  0.0000000000000D+00  0.0000000000000D+00
   371  3.7000000000000D+00  0.0000000000000D+00  0.0000000000000D+00
   372  3.7100000000000D+00  0.0000000000000D+00  0.0000000000000D+00
   373  3.7200000000000D+00  0.0000000000000D+00  0.0000000000000D+00
   374  3.7300000000000D+00  0.0000000000000D+00  0.0000000000000D+00
   375  3.7400000000000D+00  0.0000000000000D+00  0.0000000000000D+00
   376  3.7500000000000D+00  0.0000000000000D+00  0.0000000000000D+00
   377  3.7600000000000D+00  0.0000000000000D+00  0.0000000000000D+00
   378  3.7700000000000D+00  0.0000000000000D+00  0.0000000000000D+00
   379  3.7800000000000D+00  0.0000000000000D+00  0.0000000000000D+00
   380  3.7900000000000D+00  0.0000000000000D+00  0.0000000000000D+00
   381  3.8000000000000D+00  0.0000000000000D+00  0.0000000000000D+00
   382  3.8100000000000D+00  0.0000000000000D+00  0.0000000000000D+00
   383  3.8200000000000D+00  0.0000000000000D+00  0.0000000000000D+00
   384  3.8300000000000D+00  0.0000000000000D+00  0.0000000000000D+00
   385  3.8400000000000D+00  0.0000000000000D+00  0.0000000000000D+00
   386  3.8500000000000D+00  0.0000000000000D+00  0.0000000000000D+00
   387  3.8600000000000D+00  0.0000000000000D+00  0.0000000000000D+00
   388  3.8700000000000D+00  0.0000000000000D+00  0.0000000000000D+00
   389  3.8800000000000D+00  0.0000000000000D+00  0.0000000000000D+00
   390  3.8900000000000D+00  0.0000000000000D+00  0.0000000000000D+00
   391  3.9000000000000D+00  0.0000000000000D+00  0.0000000000000D+00
   392  3.9100000000000D+00  0.0000000000000D+00  0.0000000000000D+00
   393  3.9200000000000D+00  0.0000000000000D+00  0.0000000000000D+00
   394  3.9300000000000D+00  0.0000000000000D+00  0.0000000000000D+00
   395  3.9400000000000D+00  0.0000000000000D+00  0.0000000000000D+00
   396  3.9500000000000D+00  0.0000000000000D+00  0.0000000000000D+00
   397  3.9600000000000D+00  0.0000000000000D+00  0.0000000000000D+00
   398  3.9700000000000D+00  0.0000000000000D+00  0.0000000000000D+00
   399  3.9800000000000D+00  0.0000000000000D+00  0.0000000000000D+00
   400  3.9900000000000D+00  0.0000000000000D+00  0.0000000000000D+00
   401  4.0000000000000D+00  0.0000000000000D+00  0.0000000000000D+00
   402  4.0100000000000D+00  0.0000000000000D+00  0.0000000000000D+00
   403  4.0200000000000D+00  0.0000000000000D+00  0.0000000000000D+00
   404  4.0300000000000D+00  0.0000000000000D+00  0.0000000000000D+00
   405  4.0400000000000D+00  0.0000000000000D+00  0.0000000000000D+00
   406  4.0500000000000D+00  0.0000000000000D+00  0.0000000000000D+00
   407  4.0600000000000D+00  0.0000000000000D+00  0.0000000000000D+00
   408  4.0700000000000D+00  0.0000000000000D+00  0.0000000000000D+00
   409  4.0800000000000D+00  0.0000000000000D+00  0.0000000000000D+00
   410  4.0900000000000D+00  0.0000000000000D+00  0.0000000000000D+00
   411  4.1000000000000D+00  0.0000000000000D+00  0.0000000000000D+00
   412  4.1100000000000D+00  0.0000000000000D+00  0.0000000000000D+00
   413  4.1200000000000D+00  0.0000000000000D+00  0.0000000000000D+00
   414  4.1300000000000D+00  0.0000000000000D+00  0.0000000000000D+00
   415  4.1400000000000D+00  0.0000000000000D+00  0.0000000000000D+00
   416  4.1500000000000D+00  0.0000000000000D+00  0.0000000000000D+00
   417  4.1600000000000D+00  0.0000000000000D+00  0.0000000000000D+00
   418  4.1700000000000D+00  0.0000000000000D+00  0.0000000000000D+00
   419  4.1800000000000D+00  0.0000000000000D+00  0.0000000000000D+00
   420  4.1900000000000D+00  0.0000000000000D+00  0.0000000000000D+00
   421  4.2000000000000D+00  0.0000000000000D+00  0.0000000000000D+00
   422  4.2100000000000D+00  0.0000000000000D+00  0.0000000000000D+00