I     ONCVPSP-3.3.0  r_core=   1.41262   1.41262   1.41262
     53.0000     25.0000      220117    zatom,zion,pspd
     8      11   2     4   600     0    pspcod,pspxc,lmax,lloc,mmax,r2well
  5.99000000  0.00000000  0.00000000    rchrg fchrg qchrg
     2     2     2     0     0    nproj
     1     1           extension_switch
   0                         1.1990531681996D+01  1.9275841816750D+00
     1  0.0000000000000D+00 -3.0522517846521D-10  6.9101081801026D-10
     2  1.0000000000000D-02  9.4789321809095D-02 -1.6614904125594D-02
     3  2.0000000000000D-02  1.8927521100462D-01 -3.3015533310728D-02
     4  3.0000000000000D-02  2.8315547535099D-01 -4.8989088904458D-02
     5  4.0000000000000D-02  3.7613039579803D-01 -6.4325710947932D-02
     6  5.0000000000000D-02  4.6790394422612D-01 -7.8819912981963D-02
     7  6.0000000000000D-02  5.5818497879431D-01 -9.2271975906925D-02
     8  7.0000000000000D-02  6.4668840978897D-01 -1.0448928806904D-01
     9  8.0000000000000D-02  7.3313632917598D-01 -1.1528761943813D-01
    10  9.0000000000000D-02  8.1725909743298D-01 -1.2449231858739D-01
    11  1.0000000000000D-01  8.9879638167572D-01 -1.3193942217391D-01
    12  1.1000000000000D-01  9.7749813958696D-01 -1.3747666773564D-01
    13  1.2000000000000D-01  1.0531255442027D+00 -1.4096440185079D-01
    14  1.3000000000000D-01  1.1254518451993D+00 -1.4227637703179D-01
    15  1.4000000000000D-01  1.1942631629508D+00 -1.4130043212855D-01
    16  1.5000000000000D-01  1.2593592122764D+00 -1.3793905247668D-01
    17  1.6000000000000D-01  1.3205539534697D+00 -1.3210980752201D-01
    18  1.7000000000000D-01  1.3776761688803D+00 -1.2374566516456D-01
    19  1.8000000000000D-01  1.4305699639966D+00 -1.1279518356878D-01
    20  1.9000000000000D-01  1.4790951926499D+00 -9.9222582662353D-02
    21  2.0000000000000D-01  1.5231278066100D+00 -8.3007698970458D-02
    22  2.1000000000000D-01  1.5625601304675D+00 -6.4145828785485D-02
    23  2.2000000000000D-01  1.5973010632839D+00 -4.2647465933714D-02
    24  2.3000000000000D-01  1.6272762090375D+00 -1.8537941551666D-02
    25  2.4000000000000D-01  1.6524279383839D+00  8.1430256923689D-03
    26  2.5000000000000D-01  1.6727153846846D+00  3.7341859616542D-02
    27  2.6000000000000D-01  1.6881143776328D+00  6.8991726745842D-02
    28  2.7000000000000D-01  1.6986173181034D+00  1.0301319614372D-01
    29  2.8000000000000D-01  1.7042329980918D+00  1.3931494788722D-01
    30  2.9000000000000D-01  1.7049863697613D+00  1.7779451902531D-01
    31  3.0000000000000D-01  1.7009182677008D+00  2.1833907585409D-01
    32  3.1000000000000D-01  1.6920850885054D+00  2.6082620152423D-01
    33  3.2000000000000D-01  1.6785584317198D+00  3.0512468836212D-01
    34  3.3000000000000D-01  1.6604247060528D+00  3.5109532483234D-01
    35  3.4000000000000D-01  1.6377847045571D+00  3.9859166778548D-01
    36  3.5000000000000D-01  1.6107531522077D+00  4.4746079151127D-01
    37  3.6000000000000D-01  1.5794582289784D+00  4.9754400613840D-01
    38  3.7000000000000D-01  1.5440410711472D+00  5.4867753907170D-01
    39  3.8000000000000D-01  1.5046552531423D+00  6.0069317441561D-01
    40  3.9000000000000D-01  1.4614662517931D+00  6.5341884667882D-01
    41  4.0000000000000D-01  1.4146508943812D+00  7.0667918646473D-01
    42  4.1000000000000D-01  1.3643967914071D+00  7.6029601730079D-01
    43  4.2000000000000D-01  1.3109017545043D+00  8.1408880422182D-01
    44  4.3000000000000D-01  1.2543731994660D+00  8.6787505616951D-01
    45  4.4000000000000D-01  1.1950275338996D+00  9.2147068567664D-01
    46  4.5000000000000D-01  1.1330895286112D+00  9.7469033064151D-01
    47  4.6000000000000D-01  1.0687916714528D+00  1.0273476442403D+00
    48  4.7000000000000D-01  1.0023735020513D+00  1.0792555601457D+00
    49  4.8000000000000D-01  9.3408092558487D-01  1.1302265411951D+00
    50  4.9000000000000D-01  8.6416550359990D-01  1.1800728204605D+00
    51  5.0000000000000D-01  7.9288371976122D-01  1.2286066442902D+00
    52  5.1000000000000D-01  7.2049621842154D-01  1.2756405273092D+00
    53  5.2000000000000D-01  6.4726701397715D-01  1.3209875295601D+00
    54  5.3000000000000D-01  5.7346266915479D-01  1.3644615659316D+00
    55  5.4000000000000D-01  4.9935144064853D-01  1.4058777577533D+00
    56  5.5000000000000D-01  4.2520239089573D-01  1.4450528359234D+00
    57  5.6000000000000D-01  3.5128446524522D-01  1.4818056041889D+00
    58  5.7000000000000D-01  2.7786553432594D-01  1.5159574702165D+00
    59  5.8000000000000D-01  2.0521140206125D-01  1.5473330508903D+00
    60  5.9000000000000D-01  1.3358478049110D-01  1.5757608568580D+00
    61  6.0000000000000D-01  6.3244233342635D-02  1.6010740597475D+00
    62  6.1000000000000D-01 -5.5569088706522D-03  1.6231113437052D+00
    63  6.2000000000000D-01 -7.2571658564564D-02  1.6417178409937D+00
    64  6.3000000000000D-01 -1.3756050105053D-01  1.6567461493689D+00
    65  6.4000000000000D-01 -2.0029253926729D-01  1.6680574268425D+00
    66  6.5000000000000D-01 -2.6054664688182D-01  1.6755225573029D+00
    67  6.6000000000000D-01 -3.1811262246490D-01  1.6790233782993D+00
    68  6.7000000000000D-01 -3.7279233659464D-01  1.6784539601763D+00
    69  6.8000000000000D-01 -4.2440086294433D-01  1.6737219236960D+00
    70  6.9000000000000D-01 -4.7276758368667D-01  1.6647497813387D+00
    71  7.0000000000000D-01 -5.1773725891688D-01  1.6514762856810D+00
    72  7.1000000000000D-01 -5.5917104927554D-01  1.6338577666479D+00
    73  7.2000000000000D-01 -5.9694748055531D-01  1.6118694380561D+00
    74  7.3000000000000D-01 -6.3096333881585D-01  1.5855066527392D+00
    75  7.4000000000000D-01 -6.6113448442391D-01  1.5547860847156D+00
    76  7.5000000000000D-01 -6.8739657348928D-01  1.5197468163361D+00
    77  7.6000000000000D-01 -7.0970567538965D-01  1.4804513081711D+00
    78  7.7000000000000D-01 -7.2803877547677D-01  1.4369862295662D+00
    79  7.8000000000000D-01 -7.4239415263310D-01  1.3894631283363D+00
    80  7.9000000000000D-01 -7.5279162210269D-01  1.3380189189782D+00
    81  8.0000000000000D-01 -7.5927263495574D-01  1.2828161700719D+00
    82  8.1000000000000D-01 -7.6190022664716D-01  1.2240431731902D+00
    83  8.2000000000000D-01 -7.6075880839707D-01  1.1619137776479D+00
    84  8.3000000000000D-01 -7.5595379653794D-01  1.0966669777664D+00
    85  8.4000000000000D-01 -7.4761107652785D-01  1.0285662419903D+00
    86  8.5000000000000D-01 -7.3587630000344D-01  9.5789857612947D-01
    87  8.6000000000000D-01 -7.2091401502097D-01  8.8497331619289D-01
    88  8.7000000000000D-01 -7.0290663148743D-01  8.1012064966593D-01
    89  8.8000000000000D-01 -6.8205322569167D-01  7.3368986763903D-01
    90  8.9000000000000D-01 -6.5856818978307D-01  6.5604735385249D-01
    91  9.0000000000000D-01 -6.3267973398503D-01  5.7757432044057D-01
    92  9.1000000000000D-01 -6.0462825124464D-01  4.9866430387471D-01
    93  9.2000000000000D-01 -5.7466455588016D-01  4.1972043826742D-01
    94  9.3000000000000D-01 -5.4304800956495D-01  3.4115252674332D-01
    95  9.4000000000000D-01 -5.1004454965791D-01  2.6337393496837D-01
    96  9.5000000000000D-01 -4.7592463641247D-01  1.8679833406064D-01
    97  9.6000000000000D-01 -4.4096113696360D-01  1.1183632297339D-01
    98  9.7000000000000D-01 -4.0542716517748D-01  3.8891962989992D-02
    99  9.8000000000000D-01 -3.6959389740429D-01 -3.1640740903753D-02
   100  9.9000000000000D-01 -3.3372838491665D-01 -9.9381375268020D-02
   101  1.0000000000000D+00 -2.9809138430499D-01 -1.6396663231416D-01
   102  1.0100000000000D+00 -2.6293522733452D-01 -2.2505376432479D-01
   103  1.0200000000000D+00 -2.2850175171047D-01 -2.8232393961682D-01
   104  1.0300000000000D+00 -1.9502031391172D-01 -3.3548546150930D-01
   105  1.0400000000000D+00 -1.6270590463954D-01 -3.8427681259165D-01
   106  1.0500000000000D+00 -1.3175738655632D-01 -4.2846948795365D-01
   107  1.0600000000000D+00 -1.0235587286432D-01 -4.6787058289585D-01
   108  1.0700000000000D+00 -7.4663263842105D-02 -5.0232510309865D-01
   109  1.0800000000000D+00 -4.8820956820613D-02 -5.3171796810665D-01
   110  1.0900000000000D+00 -2.4948743311839D-02 -5.5597568214118D-01
   111  1.1000000000000D+00 -3.1439047287321D-03 -5.7506765038212D-01
   112  1.1100000000000D+00  1.6519483926503D-02 -5.8900712263918D-01
   113  1.1200000000000D+00  3.3991035723145D-02 -5.9785175131877D-01
   114  1.1300000000000D+00  4.9244314106067D-02 -6.0170375426568D-01
   115  1.1400000000000D+00  6.2276874391038D-02 -6.0070967915070D-01
   116  1.1500000000000D+00  7.3110085236357D-02 -5.9505977029623D-01
   117  1.1600000000000D+00  8.1788733973689D-02 -5.8498694469334D-01
   118  1.1700000000000D+00  8.8380423404708D-02 -5.7076539225644D-01
   119  1.1800000000000D+00  9.2974757217861D-02 -5.5270878640662D-01
   120  1.1900000000000D+00  9.5682378047000D-02 -5.3116825909018D-01
   121  1.2000000000000D+00  9.6633604276362D-02 -5.0652949154955D-01
   122  1.2100000000000D+00  9.5977710400647D-02 -4.7921155020620D-01
   123  1.2200000000000D+00  9.3880075922616D-02 -4.4966041903285D-01
   124  1.2300000000000D+00  9.0516982699411D-02 -4.1833667726766D-01
   125  1.2400000000000D+00  8.6070142802676D-02 -3.8570295066928D-01
   126  1.2500000000000D+00  8.0723271794833D-02 -3.5221672264889D-01
   127  1.2600000000000D+00  7.4660507225367D-02 -3.1832795408812D-01
   128  1.2700000000000D+00  6.8063981134027D-02 -2.8447449216628D-01
   129  1.2800000000000D+00  6.1111691474434D-02 -2.5107823948846D-01
   130  1.2900000000000D+00  5.3975371305709D-02 -2.1854127741913D-01
   131  1.3000000000000D+00  4.6818457369500D-02 -1.8724219091920D-01
   132  1.3100000000000D+00  3.9794162770454D-02 -1.5753259066978D-01
   133  1.3200000000000D+00  3.3043677621421D-02 -1.2973387949046D-01
   134  1.3300000000000D+00  2.6694520131328D-02 -1.0413430555768D-01
   135  1.3400000000000D+00  2.0859055304124D-02 -8.0986334437172D-02
   136  1.3500000000000D+00  1.5633196723530D-02 -6.0504368718669D-02
   137  1.3600000000000D+00  1.1095308105183D-02 -4.2862846284442D-02
   138  1.3700000000000D+00  7.3075916791849D-03 -2.8203707628463D-02
   139  1.3800000000000D+00  4.3022551012054D-03 -1.6583696055868D-02
   140  1.3900000000000D+00  2.0971496236821D-03 -8.0377038909707D-03
   141  1.4000000000000D+00  7.6589744073088D-04 -2.8412982287917D-03
   142  1.4100000000000D+00  1.8741859457133D-04 -5.7099878245637D-04
   143  1.4200000000000D+00  1.6263979585756D-05  2.8613923270511D-05
   144  1.4300000000000D+00  2.1837133867062D-07 -2.8769729718212D-06
   145  1.4400000000000D+00  4.0411947265407D-06 -3.0354468528202D-05
   146  1.4500000000000D+00 -7.2974179084143D-08  2.6921593639581D-06
   147  1.4600000000000D+00 -2.1327705215262D-07  3.1413180749597D-06
   148  1.4700000000000D+00 -3.0721363959648D-07  8.0008342673516D-07
   149  1.4800000000000D+00 -9.2684458240165D-08  2.4138022989892D-07
   150  1.4900000000000D+00  0.0000000000000D+00  0.0000000000000D+00
   151  1.5000000000000D+00  0.0000000000000D+00  0.0000000000000D+00
   152  1.5100000000000D+00  0.0000000000000D+00  0.0000000000000D+00
   153  1.5200000000000D+00  0.0000000000000D+00  0.0000000000000D+00
   154  1.5300000000000D+00  0.0000000000000D+00  0.0000000000000D+00
   155  1.5400000000000D+00  0.0000000000000D+00  0.0000000000000D+00
   156  1.5500000000000D+00  0.0000000000000D+00  0.0000000000000D+00
   157  1.5600000000000D+00  0.0000000000000D+00  0.0000000000000D+00
   158  1.5700000000000D+00  0.0000000000000D+00  0.0000000000000D+00
   159  1.5800000000000D+00  0.0000000000000D+00  0.0000000000000D+00
   160  1.5900000000000D+00  0.0000000000000D+00  0.0000000000000D+00
   161  1.6000000000000D+00  0.0000000000000D+00  0.0000000000000D+00
   162  1.6100000000000D+00  0.0000000000000D+00  0.0000000000000D+00
   163  1.6200000000000D+00  0.0000000000000D+00  0.0000000000000D+00
   164  1.6300000000000D+00  0.0000000000000D+00  0.0000000000000D+00
   165  1.6400000000000D+00  0.0000000000000D+00  0.0000000000000D+00
   166  1.6500000000000D+00  0.0000000000000D+00  0.0000000000000D+00
   167  1.6600000000000D+00  0.0000000000000D+00  0.0000000000000D+00
   168  1.6700000000000D+00  0.0000000000000D+00  0.0000000000000D+00
   169  1.6800000000000D+00  0.0000000000000D+00  0.0000000000000D+00
   170  1.6900000000000D+00  0.0000000000000D+00  0.0000000000000D+00
   171  1.7000000000000D+00  0.0000000000000D+00  0.0000000000000D+00
   172  1.7100000000000D+00  0.0000000000000D+00  0.0000000000000D+00
   173  1.7200000000000D+00  0.0000000000000D+00  0.0000000000000D+00
   174  1.7300000000000D+00  0.0000000000000D+00  0.0000000000000D+00
   175  1.7400000000000D+00  0.0000000000000D+00  0.0000000000000D+00
   176  1.7500000000000D+00  0.0000000000000D+00  0.0000000000000D+00
   177  1.7600000000000D+00  0.0000000000000D+00  0.0000000000000D+00
   178  1.7700000000000D+00  0.0000000000000D+00  0.0000000000000D+00
   179  1.7800000000000D+00  0.0000000000000D+00  0.0000000000000D+00
   180  1.7900000000000D+00  0.0000000000000D+00  0.0000000000000D+00
   181  1.8000000000000D+00  0.0000000000000D+00  0.0000000000000D+00
   182  1.8100000000000D+00  0.0000000000000D+00  0.0000000000000D+00
   183  1.8200000000000D+00  0.0000000000000D+00  0.0000000000000D+00
   184  1.8300000000000D+00  0.0000000000000D+00  0.0000000000000D+00
   185  1.8400000000000D+00  0.0000000000000D+00  0.0000000000000D+00
   186  1.8500000000000D+00  0.0000000000000D+00  0.0000000000000D+00
   187  1.8600000000000D+00  0.0000000000000D+00  0.0000000000000D+00
   188  1.8700000000000D+00  0.0000000000000D+00  0.0000000000000D+00
   189  1.8800000000000D+00  0.0000000000000D+00  0.0000000000000D+00
   190  1.8900000000000D+00  0.0000000000000D+00  0.0000000000000D+00
   191  1.9000000000000D+00  0.0000000000000D+00  0.0000000000000D+00
   192  1.9100000000000D+00  0.0000000000000D+00  0.0000000000000D+00
   193  1.9200000000000D+00  0.0000000000000D+00  0.0000000000000D+00
   194  1.9300000000000D+00  0.0000000000000D+00  0.0000000000000D+00
   195  1.9400000000000D+00  0.0000000000000D+00  0.0000000000000D+00
   196  1.9500000000000D+00  0.0000000000000D+00  0.0000000000000D+00
   197  1.9600000000000D+00  0.0000000000000D+00  0.0000000000000D+00
   198  1.9700000000000D+00  0.0000000000000D+00  0.0000000000000D+00
   199  1.9800000000000D+00  0.0000000000000D+00  0.0000000000000D+00
   200  1.9900000000000D+00  0.0000000000000D+00  0.0000000000000D+00
   201  2.0000000000000D+00  0.0000000000000D+00  0.0000000000000D+00
   202  2.0100000000000D+00  0.0000000000000D+00  0.0000000000000D+00
   203  2.0200000000000D+00  0.0000000000000D+00  0.0000000000000D+00
   204  2.0300000000000D+00  0.0000000000000D+00  0.0000000000000D+00
   205  2.0400000000000D+00  0.0000000000000D+00  0.0000000000000D+00
   206  2.0500000000000D+00  0.0000000000000D+00  0.0000000000000D+00
   207  2.0600000000000D+00  0.0000000000000D+00  0.0000000000000D+00
   208  2.0700000000000D+00  0.0000000000000D+00  0.0000000000000D+00
   209  2.0800000000000D+00  0.0000000000000D+00  0.0000000000000D+00
   210  2.0900000000000D+00  0.0000000000000D+00  0.0000000000000D+00
   211  2.1000000000000D+00  0.0000000000000D+00  0.0000000000000D+00
   212  2.1100000000000D+00  0.0000000000000D+00  0.0000000000000D+00
   213  2.1200000000000D+00  0.0000000000000D+00  0.0000000000000D+00
   214  2.1300000000000D+00  0.0000000000000D+00  0.0000000000000D+00
   215  2.1400000000000D+00  0.0000000000000D+00  0.0000000000000D+00
   216  2.1500000000000D+00  0.0000000000000D+00  0.0000000000000D+00
   217  2.1600000000000D+00  0.0000000000000D+00  0.0000000000000D+00
   218  2.1700000000000D+00  0.0000000000000D+00  0.0000000000000D+00
   219  2.1800000000000D+00  0.0000000000000D+00  0.0000000000000D+00
   220  2.1900000000000D+00  0.0000000000000D+00  0.0000000000000D+00
   221  2.2000000000000D+00  0.0000000000000D+00  0.0000000000000D+00
   222  2.2100000000000D+00  0.0000000000000D+00  0.0000000000000D+00
   223  2.2200000000000D+00  0.0000000000000D+00  0.0000000000000D+00
   224  2.2300000000000D+00  0.0000000000000D+00  0.0000000000000D+00
   225  2.2400000000000D+00  0.0000000000000D+00  0.0000000000000D+00
   226  2.2500000000000D+00  0.0000000000000D+00  0.0000000000000D+00
   227  2.2600000000000D+00  0.0000000000000D+00  0.0000000000000D+00
   228  2.2700000000000D+00  0.0000000000000D+00  0.0000000000000D+00
   229  2.2800000000000D+00  0.0000000000000D+00  0.0000000000000D+00
   230  2.2900000000000D+00  0.0000000000000D+00  0.0000000000000D+00
   231  2.3000000000000D+00  0.0000000000000D+00  0.0000000000000D+00
   232  2.3100000000000D+00  0.0000000000000D+00  0.0000000000000D+00
   233  2.3200000000000D+00  0.0000000000000D+00  0.0000000000000D+00
   234  2.3300000000000D+00  0.0000000000000D+00  0.0000000000000D+00
   235  2.3400000000000D+00  0.0000000000000D+00  0.0000000000000D+00
   236  2.3500000000000D+00  0.0000000000000D+00  0.0000000000000D+00
   237  2.3600000000000D+00  0.0000000000000D+00  0.0000000000000D+00
   238  2.3700000000000D+00  0.0000000000000D+00  0.0000000000000D+00
   239  2.3800000000000D+00  0.0000000000000D+00  0.0000000000000D+00
   240  2.3900000000000D+00  0.0000000000000D+00  0.0000000000000D+00
   241  2.4000000000000D+00  0.0000000000000D+00  0.0000000000000D+00
   242  2.4100000000000D+00  0.0000000000000D+00  0.0000000000000D+00
   243  2.4200000000000D+00  0.0000000000000D+00  0.0000000000000D+00
   244  2.4300000000000D+00  0.0000000000000D+00  0.0000000000000D+00
   245  2.4400000000000D+00  0.0000000000000D+00  0.0000000000000D+00
   246  2.4500000000000D+00  0.0000000000000D+00  0.0000000000000D+00
   247  2.4600000000000D+00  0.0000000000000D+00  0.0000000000000D+00
   248  2.4700000000000D+00  0.0000000000000D+00  0.0000000000000D+00
   249  2.4800000000000D+00  0.0000000000000D+00  0.0000000000000D+00
   250  2.4900000000000D+00  0.0000000000000D+00  0.0000000000000D+00
   251  2.5000000000000D+00  0.0000000000000D+00  0.0000000000000D+00
   252  2.5100000000000D+00  0.0000000000000D+00  0.0000000000000D+00
   253  2.5200000000000D+00  0.0000000000000D+00  0.0000000000000D+00
   254  2.5300000000000D+00  0.0000000000000D+00  0.0000000000000D+00
   255  2.5400000000000D+00  0.0000000000000D+00  0.0000000000000D+00
   256  2.5500000000000D+00  0.0000000000000D+00  0.0000000000000D+00
   257  2.5600000000000D+00  0.0000000000000D+00  0.0000000000000D+00
   258  2.5700000000000D+00  0.0000000000000D+00  0.0000000000000D+00
   259  2.5800000000000D+00  0.0000000000000D+00  0.0000000000000D+00
   260  2.5900000000000D+00  0.0000000000000D+00  0.0000000000000D+00
   261  2.6000000000000D+00  0.0000000000000D+00  0.0000000000000D+00
   262  2.6100000000000D+00  0.0000000000000D+00  0.0000000000000D+00
   263  2.6200000000000D+00  0.0000000000000D+00  0.0000000000000D+00
   264  2.6300000000000D+00  0.0000000000000D+00  0.0000000000000D+00
   265  2.6400000000000D+00  0.0000000000000D+00  0.0000000000000D+00
   266  2.6500000000000D+00  0.0000000000000D+00  0.0000000000000D+00
   267  2.6600000000000D+00  0.0000000000000D+00  0.0000000000000D+00
   268  2.6700000000000D+00  0.0000000000000D+00  0.0000000000000D+00
   269  2.6800000000000D+00  0.0000000000000D+00  0.0000000000000D+00
   270  2.6900000000000D+00  0.0000000000000D+00  0.0000000000000D+00
   271  2.7000000000000D+00  0.0000000000000D+00  0.0000000000000D+00
   272  2.7100000000000D+00  0.0000000000000D+00  0.0000000000000D+00
   273  2.7200000000000D+00  0.0000000000000D+00  0.0000000000000D+00
   274  2.7300000000000D+00  0.0000000000000D+00  0.0000000000000D+00
   275  2.7400000000000D+00  0.0000000000000D+00  0.0000000000000D+00
   276  2.7500000000000D+00  0.0000000000000D+00  0.0000000000000D+00
   277  2.7600000000000D+00  0.0000000000000D+00  0.0000000000000D+00
   278  2.7700000000000D+00  0.0000000000000D+00  0.0000000000000D+00
   279  2.7800000000000D+00  0.0000000000000D+00  0.0000000000000D+00
   280  2.7900000000000D+00  0.0000000000000D+00  0.0000000000000D+00
   281  2.8000000000000D+00  0.0000000000000D+00  0.0000000000000D+00
   282  2.8100000000000D+00  0.0000000000000D+00  0.0000000000000D+00
   283  2.8200000000000D+00  0.0000000000000D+00  0.0000000000000D+00
   284  2.8300000000000D+00  0.0000000000000D+00  0.0000000000000D+00
   285  2.8400000000000D+00  0.0000000000000D+00  0.0000000000000D+00
   286  2.8500000000000D+00  0.0000000000000D+00  0.0000000000000D+00
   287  2.8600000000000D+00  0.0000000000000D+00  0.0000000000000D+00
   288  2.8700000000000D+00  0.0000000000000D+00  0.0000000000000D+00
   289  2.8800000000000D+00  0.0000000000000D+00  0.0000000000000D+00
   290  2.8900000000000D+00  0.0000000000000D+00  0.0000000000000D+00
   291  2.9000000000000D+00  0.0000000000000D+00  0.0000000000000D+00
   292  2.9100000000000D+00  0.0000000000000D+00  0.0000000000000D+00
   293  2.9200000000000D+00  0.0000000000000D+00  0.0000000000000D+00
   294  2.9300000000000D+00  0.0000000000000D+00  0.0000000000000D+00
   295  2.9400000000000D+00  0.0000000000000D+00  0.0000000000000D+00
   296  2.9500000000000D+00  0.0000000000000D+00  0.0000000000000D+00
   297  2.9600000000000D+00  0.0000000000000D+00  0.0000000000000D+00
   298  2.9700000000000D+00  0.0000000000000D+00  0.0000000000000D+00
   299  2.9800000000000D+00  0.0000000000000D+00  0.0000000000000D+00
   300  2.9900000000000D+00  0.0000000000000D+00  0.0000000000000D+00
   301  3.0000000000000D+00  0.0000000000000D+00  0.0000000000000D+00
   302  3.0100000000000D+00  0.0000000000000D+00  0.0000000000000D+00
   303  3.0200000000000D+00  0.0000000000000D+00  0.0000000000000D+00
   304  3.0300000000000D+00  0.0000000000000D+00  0.0000000000000D+00
   305  3.0400000000000D+00  0.0000000000000D+00  0.0000000000000D+00
   306  3.0500000000000D+00  0.0000000000000D+00  0.0000000000000D+00
   307  3.0600000000000D+00  0.0000000000000D+00  0.0000000000000D+00
   308  3.0700000000000D+00  0.0000000000000D+00  0.0000000000000D+00
   309  3.0800000000000D+00  0.0000000000000D+00  0.0000000000000D+00
   310  3.0900000000000D+00  0.0000000000000D+00  0.0000000000000D+00
   311  3.1000000000000D+00  0.0000000000000D+00  0.0000000000000D+00
   312  3.1100000000000D+00  0.0000000000000D+00  0.0000000000000D+00
   313  3.1200000000000D+00  0.0000000000000D+00  0.0000000000000D+00
   314  3.1300000000000D+00  0.0000000000000D+00  0.0000000000000D+00
   315  3.1400000000000D+00  0.0000000000000D+00  0.0000000000000D+00
   316  3.1500000000000D+00  0.0000000000000D+00  0.0000000000000D+00
   317  3.1600000000000D+00  0.0000000000000D+00  0.0000000000000D+00
   318  3.1700000000000D+00  0.0000000000000D+00  0.0000000000000D+00
   319  3.1800000000000D+00  0.0000000000000D+00  0.0000000000000D+00
   320  3.1900000000000D+00  0.0000000000000D+00  0.0000000000000D+00
   321  3.2000000000000D+00  0.0000000000000D+00  0.0000000000000D+00
   322  3.2100000000000D+00  0.0000000000000D+00  0.0000000000000D+00
   323  3.2200000000000D+00  0.0000000000000D+00  0.0000000000000D+00
   324  3.2300000000000D+00  0.0000000000000D+00  0.0000000000000D+00
   325  3.2400000000000D+00  0.0000000000000D+00  0.0000000000000D+00
   326  3.2500000000000D+00  0.0000000000000D+00  0.0000000000000D+00
   327  3.2600000000000D+00  0.0000000000000D+00  0.0000000000000D+00
   328  3.2700000000000D+00  0.0000000000000D+00  0.0000000000000D+00
   329  3.2800000000000D+00  0.0000000000000D+00  0.0000000000000D+00
   330  3.2900000000000D+00  0.0000000000000D+00  0.0000000000000D+00
   331  3.3000000000000D+00  0.0000000000000D+00  0.0000000000000D+00
   332  3.3100000000000D+00  0.0000000000000D+00  0.0000000000000D+00
   333  3.3200000000000D+00  0.0000000000000D+00  0.0000000000000D+00
   334  3.3300000000000D+00  0.0000000000000D+00  0.0000000000000D+00
   335  3.3400000000000D+00  0.0000000000000D+00  0.0000000000000D+00
   336  3.3500000000000D+00  0.0000000000000D+00  0.0000000000000D+00
   337  3.3600000000000D+00  0.0000000000000D+00  0.0000000000000D+00
   338  3.3700000000000D+00  0.0000000000000D+00  0.0000000000000D+00
   339  3.3800000000000D+00  0.0000000000000D+00  0.0000000000000D+00
   340  3.3900000000000D+00  0.0000000000000D+00  0.0000000000000D+00
   341  3.4000000000000D+00  0.0000000000000D+00  0.0000000000000D+00
   342  3.4100000000000D+00  0.0000000000000D+00  0.0000000000000D+00
   343  3.4200000000000D+00  0.0000000000000D+00  0.0000000000000D+00
   344  3.4300000000000D+00  0.0000000000000D+00  0.0000000000000D+00
   345  3.4400000000000D+00  0.0000000000000D+00  0.0000000000000D+00
   346  3.4500000000000D+00  0.0000000000000D+00  0.0000000000000D+00
   347  3.4600000000000D+00  0.0000000000000D+00  0.0000000000000D+00
   348  3.4700000000000D+00  0.0000000000000D+00  0.0000000000000D+00
   349  3.4800000000000D+00  0.0000000000000D+00  0.0000000000000D+00
   350  3.4900000000000D+00  0.0000000000000D+00  0.0000000000000D+00
   351  3.5000000000000D+00  0.0000000000000D+00  0.0000000000000D+00
   352  3.5100000000000D+00  0.0000000000000D+00  0.0000000000000D+00
   353  3.5200000000000D+00  0.0000000000000D+00  0.0000000000000D+00
   354  3.5300000000000D+00  0.0000000000000D+00  0.0000000000000D+00
   355  3.5400000000000D+00  0.0000000000000D+00  0.0000000000000D+00
   356  3.5500000000000D+00  0.0000000000000D+00  0.0000000000000D+00
   357  3.5600000000000D+00  0.0000000000000D+00  0.0000000000000D+00
   358  3.5700000000000D+00  0.0000000000000D+00  0.0000000000000D+00
   359  3.5800000000000D+00  0.0000000000000D+00  0.0000000000000D+00
   360  3.5900000000000D+00  0.0000000000000D+00  0.0000000000000D+00
   361  3.6000000000000D+00  0.0000000000000D+00  0.0000000000000D+00
   362  3.6100000000000D+00  0.0000000000000D+00  0.0000000000000D+00
   363  3.6200000000000D+00  0.0000000000000D+00  0.0000000000000D+00
   364  3.6300000000000D+00  0.0000000000000D+00  0.0000000000000D+00
   365  3.6400000000000D+00  0.0000000000000D+00  0.0000000000000D+00
   366  3.6500000000000D+00  0.0000000000000D+00  0.0000000000000D+00
   367  3.6600000000000D+00  0.0000000000000D+00  0.0000000000000D+00
   368  3.6700000000000D+00  0.0000000000000D+00  0.0000000000000D+00
   369  3.6800000000000D+00  0.0000000000000D+00  0.0000000000000D+00
   370  3.6900000000000D+00  0.0000000000000D+00  0.0000000000000D+00
   371  3.7000000000000D+00  0.0000000000000D+00  0.0000000000000D+00
   372  3.7100000000000D+00  0.0000000000000D+00  0.0000000000000D+00
   373  3.7200000000000D+00  0.0000000000000D+00  0.0000000000000D+00
   374  3.7300000000000D+00  0.0000000000000D+00  0.0000000000000D+00
   375  3.7400000000000D+00  0.0000000000000D+00  0.0000000000000D+00
   376  3.7500000000000D+00  0.0000000000000D+00  0.0000000000000D+00
   377  3.7600000000000D+00  0.0000000000000D+00  0.0000000000000D+00
   378  3.7700000000000D+00  0.0000000000000D+00  0.0000000000000D+00
   379  3.7800000000000D+00  0.0000000000000D+00  0.0000000000000D+00
   380  3.7900000000000D+00  0.0000000000000D+00  0.0000000000000D+00
   381  3.8000000000000D+00  0.0000000000000D+00  0.0000000000000D+00
   382  3.8100000000000D+00  0.0000000000000D+00  0.0000000000000D+00
   383  3.8200000000000D+00  0.0000000000000D+00  0.0000000000000D+00
   384  3.8300000000000D+00  0.0000000000000D+00  0.0000000000000D+00
   385  3.8400000000000D+00  0.0000000000000D+00  0.0000000000000D+00
   386  3.8500000000000D+00  0.0000000000000D+00  0.0000000000000D+00
   387  3.8600000000000D+00  0.0000000000000D+00  0.0000000000000D+00
   388  3.8700000000000D+00  0.0000000000000D+00  0.0000000000000D+00
   389  3.8800000000000D+00  0.0000000000000D+00  0.0000000000000D+00
   390  3.8900000000000D+00  0.0000000000000D+00  0.0000000000000D+00
   391  3.9000000000000D+00  0.0000000000000D+00  0.0000000000000D+00
   392  3.9100000000000D+00  0.0000000000000D+00  0.0000000000000D+00
   393  3.9200000000000D+00  0.0000000000000D+00  0.0000000000000D+00
   394  3.9300000000000D+00  0.0000000000000D+00  0.0000000000000D+00
   395  3.9400000000000D+00  0.0000000000000D+00  0.0000000000000D+00
   396  3.9500000000000D+00  0.0000000000000D+00  0.0000000000000D+00
   397  3.9600000000000D+00  0.0000000000000D+00  0.0000000000000D+00
   398  3.9700000000000D+00  0.0000000000000D+00  0.0000000000000D+00
   399  3.9800000000000D+00  0.0000000000000D+00  0.0000000000000D+00
   400  3.9900000000000D+00  0.0000000000000D+00  0.0000000000000D+00
   401  4.0000000000000D+00  0.0000000000000D+00  0.0000000000000D+00
   402  4.0100000000000D+00  0.0000000000000D+00  0.0000000000000D+00
   403  4.0200000000000D+00  0.0000000000000D+00  0.0000000000000D+00
   404  4.0300000000000D+00  0.0000000000000D+00  0.0000000000000D+00
   405  4.0400000000000D+00  0.0000000000000D+00  0.0000000000000D+00
   406  4.0500000000000D+00  0.0000000000000D+00  0.0000000000000D+00
   407  4.0600000000000D+00  0.0000000000000D+00  0.0000000000000D+00
   408  4.0700000000000D+00  0.0000000000000D+00  0.0000000000000D+00
   409  4.0800000000000D+00  0.0000000000000D+00  0.0000000000000D+00
   410  4.0900000000000D+00  0.0000000000000D+00  0.0000000000000D+00
   411  4.1000000000000D+00  0.0000000000000D+00  0.0000000000000D+00
   412  4.1100000000000D+00  0.0000000000000D+00  0.0000000000000D+00
   413  4.1200000000000D+00  0.0000000000000D+00  0.0000000000000D+00
   414  4.1300000000000D+00  0.0000000000000D+00  0.0000000000000D+00
   415  4.1400000000000D+00  0.0000000000000D+00  0.0000000000000D+00
   416  4.1500000000000D+00  0.0000000000000D+00  0.0000000000000D+00
   417  4.1600000000000D+00  0.0000000000000D+00  0.0000000000000D+00
   418  4.1700000000000D+00  0.0000000000000D+00  0.0000000000000D+00
   419  4.1800000000000D+00  0.0000000000000D+00  0.0000000000000D+00
   420  4.1900000000000D+00  0.0000000000000D+00  0.0000000000000D+00
   421  4.2000000000000D+00  0.0000000000000D+00  0.0000000000000D+00
   422  4.2100000000000D+00  0.0000000000000D+00  0.0000000000000D+00