I     ONCVPSP-3.3.0  r_core=   2.02042   2.17032   2.27639
     53.0000      7.0000      220117    zatom,zion,pspd
     8      11   2     4   600     0    pspcod,pspxc,lmax,lloc,mmax,r2well
  5.99000000  0.00000000  0.00000000    rchrg fchrg qchrg
     2     2     2     0     0    nproj
     1     1           extension_switch
   0                         5.9555179645981D+00  9.1645467547052D-01
     1  0.0000000000000D+00  7.1114641952974D-12 -5.0671217222131D-11
     2  1.0000000000000D-02  1.4538739384911D-02  2.5817632446394D-02
     3  2.0000000000000D-02  2.9104896059538D-02  5.1494156125469D-02
     4  3.0000000000000D-02  4.3725750367164D-02  7.6889131668615D-02
     5  4.0000000000000D-02  5.8428309261571D-02  1.0186345553801D-01
     6  5.0000000000000D-02  7.3239170868935D-02  1.2628002053828D-01
     7  6.0000000000000D-02  8.8184390552673D-02  1.5000436747936D-01
     8  7.0000000000000D-02  1.0328934897394D-01  1.7290532510050D-01
     9  8.0000000000000D-02  1.1857862263333D-01  1.9485563541576D-01
    10  9.0000000000000D-02  1.3407585737055D-01  2.1573256170441D-01
    11  1.0000000000000D-01  1.4980364528840D-01  2.3541847644439D-01
    12  1.1000000000000D-01  1.6578340555496D-01  2.5380142657372D-01
    13  1.2000000000000D-01  1.8203526952451D-01  2.7077567356231D-01
    14  1.3000000000000D-01  1.9857797060198D-01  2.8624220588590D-01
    15  1.4000000000000D-01  2.1542873925910D-01  3.0010922161269D-01
    16  1.5000000000000D-01  2.3260320359202D-01  3.1229257894279D-01
    17  1.6000000000000D-01  2.5011529579048D-01  3.2271621267914D-01
    18  1.7000000000000D-01  2.6797716486762D-01  3.3131251475606D-01
    19  1.8000000000000D-01  2.8619909597719D-01  3.3802267710745D-01
    20  1.9000000000000D-01  3.0478943662166D-01  3.4279699532005D-01
    21  2.0000000000000D-01  3.2375453003004D-01  3.4559513168708D-01
    22  2.1000000000000D-01  3.4309865595876D-01  3.4638633645445D-01
    23  2.2000000000000D-01  3.6282397914271D-01  3.4514962623323D-01
    24  2.3000000000000D-01  3.8293050559622D-01  3.4187391873873D-01
    25  2.4000000000000D-01  4.0341604693568D-01  3.3655812320676D-01
    26  2.5000000000000D-01  4.2427619286737D-01  3.2921118603150D-01
    27  2.6000000000000D-01  4.4550429195459D-01  3.1985209136442D-01
    28  2.7000000000000D-01  4.6709144074896D-01  3.0850981661154D-01
    29  2.8000000000000D-01  4.8902648134112D-01  2.9522324296341D-01
    30  2.9000000000000D-01  5.1129600735564D-01  2.8004102128977D-01
    31  3.0000000000000D-01  5.3388437838557D-01  2.6302139392718D-01
    32  3.1000000000000D-01  5.5677374283140D-01  2.4423197308213D-01
    33  3.2000000000000D-01  5.7994406907974D-01  2.2374947676333D-01
    34  3.3000000000000D-01  6.0337318492722D-01  2.0165942334497D-01
    35  3.4000000000000D-01  6.2703682512568D-01  1.7805578604603D-01
    36  3.5000000000000D-01  6.5090868689604D-01  1.5304060878829D-01
    37  3.6000000000000D-01  6.7496049322982D-01  1.2672358506831D-01
    38  3.7000000000000D-01  6.9916206376951D-01  9.9221601643075D-02
    39  3.8000000000000D-01  7.2348139303223D-01  7.0658248987072D-02
    40  3.9000000000000D-01  7.4788473571494D-01  4.1163300627507D-02
    41  4.0000000000000D-01  7.7233669879435D-01  1.0872163604835D-02
    42  4.1000000000000D-01  7.9680034011056D-01 -2.0074697563628D-02
    43  4.2000000000000D-01  8.2123727310051D-01 -5.1532360918499D-02
    44  4.3000000000000D-01  8.4560777732543D-01 -8.3352068483439D-02
    45  4.4000000000000D-01  8.6987091441624D-01 -1.1538186637377D-01
    46  4.5000000000000D-01  8.9398464904127D-01 -1.4746726079510D-01
    47  4.6000000000000D-01  9.1790597448350D-01 -1.7945188706371D-01
    48  4.7000000000000D-01  9.4159104239769D-01 -2.1117818871828D-01
    49  4.8000000000000D-01  9.6499529630360D-01 -2.4248810374329D-01
    50  4.9000000000000D-01  9.8807360835813D-01 -2.7322375488802D-01
    51  5.0000000000000D-01  1.0107804189377D+00 -3.0322814104220D-01
    52  5.1000000000000D-01  1.0330698785529D+00 -3.3234582661980D-01
    53  5.2000000000000D-01  1.0548959916086D+00 -3.6042362590640D-01
    54  5.3000000000000D-01  1.0762127615169D+00 -3.8731127934307D-01
    55  5.4000000000000D-01  1.0969743366671D+00 -4.1286211875084D-01
    56  5.5000000000000D-01  1.1171351567498D+00 -4.3693371854401D-01
    57  5.6000000000000D-01  1.1366500989385D+00 -4.5938853003870D-01
    58  5.7000000000000D-01  1.1554746234240D+00 -4.8009449603337D-01
    59  5.8000000000000D-01  1.1735649178091D+00 -4.9892564292179D-01
    60  5.9000000000000D-01  1.1908780398662D+00 -5.1576264769503D-01
    61  6.0000000000000D-01  1.2073720581749D+00 -5.3049337729691D-01
    62  6.1000000000000D-01  1.2230061901579D+00 -5.4301339791716D-01
    63  6.2000000000000D-01  1.2377409370482D+00 -5.5322645193733D-01
    64  6.3000000000000D-01  1.2515382153275D+00 -5.6104490038563D-01
    65  6.4000000000000D-01  1.2643614841936D+00 -5.6639012890892D-01
    66  6.5000000000000D-01  1.2761758686229D+00 -5.6919291542943D-01
    67  6.6000000000000D-01  1.2869482776167D+00 -5.6939375782444D-01
    68  6.7000000000000D-01  1.2966475172318D+00 -5.6694316014360D-01
    69  6.8000000000000D-01  1.3052443980180D+00 -5.6180187606234D-01
    70  6.9000000000000D-01  1.3127118365044D+00 -5.5394110846147D-01
    71  7.0000000000000D-01  1.3190249503970D+00 -5.4334266421775D-01
    72  7.1000000000000D-01  1.3241611471742D+00 -5.2999906349199D-01
    73  7.2000000000000D-01  1.3281002057873D+00 -5.1391360300384D-01
    74  7.3000000000000D-01  1.3308243512029D+00 -4.9510037299071D-01
    75  7.4000000000000D-01  1.3323183215424D+00 -4.7358422775578D-01
    76  7.5000000000000D-01  1.3325694276068D+00 -4.4940070992035D-01
    77  7.6000000000000D-01  1.3315676045971D+00 -4.2259592870429D-01
    78  7.7000000000000D-01  1.3293054558706D+00 -3.9322639276697D-01
    79  7.8000000000000D-01  1.3257782885995D+00 -3.6135879834704D-01
    80  7.9000000000000D-01  1.3209841412281D+00 -3.2706977364218D-01
    81  8.0000000000000D-01  1.3149238026517D+00 -2.9044558056929D-01
    82  8.1000000000000D-01  1.3076008230709D+00 -2.5158177523946D-01
    83  8.2000000000000D-01  1.2990215165012D+00 -2.1058282867016D-01
    84  8.3000000000000D-01  1.2891949549489D+00 -1.6756170943866D-01
    85  8.4000000000000D-01  1.2781329542903D+00 -1.2263943015412D-01
    86  8.5000000000000D-01  1.2658500519217D+00 -7.5944559791563D-02
    87  8.6000000000000D-01  1.2523634762736D+00 -2.7612704086349D-02
    88  8.7000000000000D-01  1.2376931083099D+00  2.2214043666000D-02
    89  8.8000000000000D-01  1.2218614351614D+00  7.3387678924626D-02
    90  8.9000000000000D-01  1.2048934960654D+00  1.2575488672932D-01
    91  9.0000000000000D-01  1.1868168208123D+00  1.7915766432237D-01
    92  9.1000000000000D-01  1.1676613609213D+00  2.3343396275202D-01
    93  9.2000000000000D-01  1.1474594137917D+00  2.8841834455757D-01
    94  9.3000000000000D-01  1.1262455400992D+00  3.4394265456356D-01
    95  9.4000000000000D-01  1.1040564747264D+00  3.9983670075249D-01
    96  9.5000000000000D-01  1.0809310315381D+00  4.5592894214124D-01
    97  9.6000000000000D-01  1.0569100023295D+00  5.1204718055704D-01
    98  9.7000000000000D-01  1.0320360502923D+00  5.6801925319378D-01
    99  9.8000000000000D-01  1.0063535983623D+00  6.2367372282961D-01
   100  9.9000000000000D-01  9.7990871282341D-01  6.7884056260147D-01
   101  1.0000000000000D+00  9.5274898255824D-01  7.3335183226203D-01
   102  1.0100000000000D+00  9.2492339434534D-01  7.8704234288818D-01
   103  1.0200000000000D+00  8.9648220461515D-01  8.3975030707135D-01
   104  1.0300000000000D+00  8.6747680808314D-01  8.9131797168871D-01
   105  1.0400000000000D+00  8.3795960368675D-01  9.4159223044513D-01
   106  1.0500000000000D+00  8.0798385825758D-01  9.9042521347518D-01
   107  1.0600000000000D+00  7.7760356836403D-01  1.0376748514069D+00
   108  1.0700000000000D+00  7.4687332076140D-01  1.0832054114179D+00
   109  1.0800000000000D+00  7.1584815188738D-01  1.1268880029514D+00
   110  1.0900000000000D+00  6.8458340683944D-01  1.1686010509013D+00
   111  1.1000000000000D+00  6.5313459826826D-01  1.2082307342515D+00
   112  1.1100000000000D+00  6.2155726561701D-01  1.2456713883071D+00
   113  1.1200000000000D+00  5.8990683513024D-01  1.2808258688572D+00
   114  1.1300000000000D+00  5.5823848105048D-01  1.3136058767539D+00
   115  1.1400000000000D+00  5.2660698841072D-01  1.3439322416340D+00
   116  1.1500000000000D+00  4.9506661782202D-01  1.3717351636754D+00
   117  1.1600000000000D+00  4.6367097264255D-01  1.3969544125234D+00
   118  1.1700000000000D+00  4.3247286890669D-01  1.4195394826592D+00
   119  1.1800000000000D+00  4.0152420837382D-01  1.4394497047814D+00
   120  1.1900000000000D+00  3.7087585504502D-01  1.4566543129366D+00
   121  1.2000000000000D+00  3.4057751547879D-01  1.4711324673689D+00
   122  1.2100000000000D+00  3.1067762322449D-01  1.4828732332297D+00
   123  1.2200000000000D+00  2.8122322766894D-01  1.4918755155753D+00
   124  1.2300000000000D+00  2.5225988757375D-01  1.4981479512794D+00
   125  1.2400000000000D+00  2.2383156957262D-01  1.5017087585850D+00
   126  1.2500000000000D+00  1.9598055186440D-01  1.5025855453889D+00
   127  1.2600000000000D+00  1.6874733332171D-01  1.5008150774797D+00
   128  1.2700000000000D+00  1.4217054822554D-01  1.4964430080634D+00
   129  1.2800000000000D+00  1.1628688680172D-01  1.4895235702214D+00
   130  1.2900000000000D+00  9.1131021714251D-02  1.4801192341006D+00
   131  1.3000000000000D+00  6.6735540666991D-02  1.4683003306792D+00
   132  1.3100000000000D+00  4.3130885224898D-02  1.4541446442620D+00
   133  1.3200000000000D+00  2.0345295944090D-02  1.4377369759775D+00
   134  1.3300000000000D+00 -1.5952360934938D-03  1.4191686805334D+00
   135  1.3400000000000D+00 -2.2667011301914D-02  1.3985371788304D+00
   136  1.3500000000000D+00 -4.2848657135531D-02  1.3759454490118D+00
   137  1.3600000000000D+00 -6.2121157121409D-02  1.3515014985767D+00
   138  1.3700000000000D+00 -8.0467873410671D-02  1.3253178204365D+00
   139  1.3800000000000D+00 -9.7874562856479D-02  1.2975108356719D+00
   140  1.3900000000000D+00 -1.1432938665888D-01  1.2682003259227D+00
   141  1.4000000000000D+00 -1.2982291365979D-01  1.2375088583334D+00
   142  1.4100000000000D+00 -1.4434811733264D-01  1.2055612059862D+00
   143  1.4200000000000D+00 -1.5790036659172D-01  1.1724837668015D+00
   144  1.4300000000000D+00 -1.7047741051887D-01  1.1384039837964D+00
   145  1.4400000000000D+00 -1.8207935712422D-01  1.1034497697120D+00
   146  1.4500000000000D+00 -1.9270864630955D-01  1.0677489387178D+00
   147  1.4600000000000D+00 -2.0237001714795D-01  1.0314286482269D+00
   148  1.4700000000000D+00 -2.1107046968355D-01  9.9461485335456D-01
   149  1.4800000000000D+00 -2.1881922140253D-01  9.5743177679782D-01
   150  1.4900000000000D+00 -2.2562765857195D-01  9.2000139673322D-01
   151  1.5000000000000D+00 -2.3150928265052D-01  8.8244295492689D-01
   152  1.5100000000000D+00 -2.3647965195660D-01  8.4487248785427D-01
   153  1.5200000000000D+00 -2.4055631883521D-01  8.0740238231371D-01
   154  1.5300000000000D+00 -2.4375876251222D-01  7.7014095838991D-01
   155  1.5400000000000D+00 -2.4610831788938D-01  7.3319208081060D-01
   156  1.5500000000000D+00 -2.4762810048833D-01  6.9665480107416D-01
   157  1.5600000000000D+00 -2.4834292779168D-01  6.6062303142148D-01
   158  1.5700000000000D+00 -2.4827923720861D-01  6.2518525214561D-01
   159  1.5800000000000D+00 -2.4746500090908D-01  5.9042425352838D-01
   160  1.5900000000000D+00 -2.4592963776108D-01  5.5641691285817D-01
   161  1.6000000000000D+00 -2.4370392261721D-01  5.2323400809324D-01
   162  1.6100000000000D+00 -2.4081989317945D-01  4.9094006752159D-01
   163  1.6200000000000D+00 -2.3731075469603D-01  4.5959325725346D-01
   164  1.6300000000000D+00 -2.3321078270320D-01  4.2924530480754D-01
   165  1.6400000000000D+00 -2.2855522407745D-01  3.9994146084070D-01
   166  1.6500000000000D+00 -2.2338019658654D-01  3.7172049627963D-01
   167  1.6600000000000D+00 -2.1772258721773D-01  3.4461473697084D-01
   168  1.6700000000000D+00 -2.1161994944539D-01  3.1865013237709D-01
   169  1.6800000000000D+00 -2.0511039972313D-01  2.9384636016136D-01
   170  1.6900000000000D+00 -1.9823251333943D-01  2.7021696279694D-01
   171  1.7000000000000D+00 -1.9102521992478D-01  2.4776951761716D-01
   172  1.7100000000000D+00 -1.8352769872426D-01  2.2650583611840D-01
   173  1.7200000000000D+00 -1.7577927392768D-01  2.0642219355346D-01
   174  1.7300000000000D+00 -1.6781931014217D-01  1.8750958431901D-01
   175  1.7400000000000D+00 -1.5968710830536D-01  1.6975400382450D-01
   176  1.7500000000000D+00 -1.5142180209411D-01  1.5313675215881D-01
   177  1.7600000000000D+00 -1.4306225512862D-01  1.3763475975642D-01
   178  1.7700000000000D+00 -1.3464695900736D-01  1.2322093053540D-01
   179  1.7800000000000D+00 -1.2621393245769D-01  1.0986450191169D-01
   180  1.7900000000000D+00 -1.1780062163757D-01  9.7531417707018D-02
   181  1.8000000000000D+00 -1.0944380184095D-01  8.6184712395670D-02
   182  1.8100000000000D+00 -1.0117948065783D-01  7.5784903393924D-02
   183  1.8200000000000D+00 -9.3042802796784D-02  6.6290388975628D-02
   184  1.8300000000000D+00 -8.5067956649209D-02  5.7657849108726D-02
   185  1.8400000000000D+00 -7.7288082748682D-02  4.9842646291610D-02
   186  1.8500000000000D+00 -6.9735184242748D-02  4.2799223886268D-02
   187  1.8600000000000D+00 -6.2440039471158D-02  3.6481499208078D-02
   188  1.8700000000000D+00 -5.5432116809285D-02  3.0843248337776D-02
   189  1.8800000000000D+00 -4.8739491815430D-02  2.5838481101350D-02
   190  1.8900000000000D+00 -4.2388766873094D-02  2.1421801752294D-02
   191  1.9000000000000D+00 -3.6404993334633D-02  1.7548755757590D-02
   192  1.9100000000000D+00 -3.0811596355632D-02  1.4176156785037D-02
   193  1.9200000000000D+00 -2.5630302440818D-02  1.1262395362441D-02
   194  1.9300000000000D+00 -2.0881069845047D-02  8.7677238964578D-03
   195  1.9400000000000D+00 -1.6582021897372D-02  6.6545181013410D-03
   196  1.9500000000000D+00 -1.2749608925450D-02  4.8875578031425D-03
   197  1.9600000000000D+00 -9.4003756843054D-03  3.4345983163123D-03
   198  1.9700000000000D+00 -6.5396836639608D-03  2.2643098361863D-03
   199  1.9800000000000D+00 -4.1687255357306D-03  1.3486021692760D-03
   200  1.9900000000000D+00 -2.3218607008344D-03  6.6718551613191D-04
   201  2.0000000000000D+00 -1.0296753297355D-03  2.0098763645081D-04
   202  2.0100000000000D+00 -2.6675498261344D-04 -7.0672659199005D-05
   203  2.0200000000000D+00  7.5384785875644D-05 -1.7218143979585D-04
   204  2.0300000000000D+00  1.2679912530334D-04 -1.3235442133960D-04
   205  2.0400000000000D+00  4.5207594822351D-05 -3.9746095981421D-05
   206  2.0500000000000D+00 -2.3967174546910D-05  2.0017174530318D-05
   207  2.0600000000000D+00 -2.7632416096678D-05  2.1976789254418D-05
   208  2.0700000000000D+00  7.7038772348307D-07 -7.1302614233855D-07
   209  2.0800000000000D+00  6.1951540317821D-06 -5.5843908519365D-06
   210  2.0900000000000D+00  2.8322875325206D-06 -2.5026259131709D-06
   211  2.1000000000000D+00 -1.7252336752030D-07  3.6251028559689D-07
   212  2.1100000000000D+00 -2.0580575857207D-07  4.3244405317249D-07
   213  2.1200000000000D+00  0.0000000000000D+00  0.0000000000000D+00
   214  2.1300000000000D+00  0.0000000000000D+00  0.0000000000000D+00
   215  2.1400000000000D+00  0.0000000000000D+00  0.0000000000000D+00
   216  2.1500000000000D+00  0.0000000000000D+00  0.0000000000000D+00
   217  2.1600000000000D+00  0.0000000000000D+00  0.0000000000000D+00
   218  2.1700000000000D+00  0.0000000000000D+00  0.0000000000000D+00
   219  2.1800000000000D+00  0.0000000000000D+00  0.0000000000000D+00
   220  2.1900000000000D+00  0.0000000000000D+00  0.0000000000000D+00
   221  2.2000000000000D+00  0.0000000000000D+00  0.0000000000000D+00
   222  2.2100000000000D+00  0.0000000000000D+00  0.0000000000000D+00
   223  2.2200000000000D+00  0.0000000000000D+00  0.0000000000000D+00
   224  2.2300000000000D+00  0.0000000000000D+00  0.0000000000000D+00
   225  2.2400000000000D+00  0.0000000000000D+00  0.0000000000000D+00
   226  2.2500000000000D+00  0.0000000000000D+00  0.0000000000000D+00
   227  2.2600000000000D+00  0.0000000000000D+00  0.0000000000000D+00
   228  2.2700000000000D+00  0.0000000000000D+00  0.0000000000000D+00
   229  2.2800000000000D+00  0.0000000000000D+00  0.0000000000000D+00
   230  2.2900000000000D+00  0.0000000000000D+00  0.0000000000000D+00
   231  2.3000000000000D+00  0.0000000000000D+00  0.0000000000000D+00
   232  2.3100000000000D+00  0.0000000000000D+00  0.0000000000000D+00
   233  2.3200000000000D+00  0.0000000000000D+00  0.0000000000000D+00
   234  2.3300000000000D+00  0.0000000000000D+00  0.0000000000000D+00
   235  2.3400000000000D+00  0.0000000000000D+00  0.0000000000000D+00
   236  2.3500000000000D+00  0.0000000000000D+00  0.0000000000000D+00
   237  2.3600000000000D+00  0.0000000000000D+00  0.0000000000000D+00
   238  2.3700000000000D+00  0.0000000000000D+00  0.0000000000000D+00
   239  2.3800000000000D+00  0.0000000000000D+00  0.0000000000000D+00
   240  2.3900000000000D+00  0.0000000000000D+00  0.0000000000000D+00
   241  2.4000000000000D+00  0.0000000000000D+00  0.0000000000000D+00
   242  2.4100000000000D+00  0.0000000000000D+00  0.0000000000000D+00
   243  2.4200000000000D+00  0.0000000000000D+00  0.0000000000000D+00
   244  2.4300000000000D+00  0.0000000000000D+00  0.0000000000000D+00
   245  2.4400000000000D+00  0.0000000000000D+00  0.0000000000000D+00
   246  2.4500000000000D+00  0.0000000000000D+00  0.0000000000000D+00
   247  2.4600000000000D+00  0.0000000000000D+00  0.0000000000000D+00
   248  2.4700000000000D+00  0.0000000000000D+00  0.0000000000000D+00
   249  2.4800000000000D+00  0.0000000000000D+00  0.0000000000000D+00
   250  2.4900000000000D+00  0.0000000000000D+00  0.0000000000000D+00
   251  2.5000000000000D+00  0.0000000000000D+00  0.0000000000000D+00
   252  2.5100000000000D+00  0.0000000000000D+00  0.0000000000000D+00
   253  2.5200000000000D+00  0.0000000000000D+00  0.0000000000000D+00
   254  2.5300000000000D+00  0.0000000000000D+00  0.0000000000000D+00
   255  2.5400000000000D+00  0.0000000000000D+00  0.0000000000000D+00
   256  2.5500000000000D+00  0.0000000000000D+00  0.0000000000000D+00
   257  2.5600000000000D+00  0.0000000000000D+00  0.0000000000000D+00
   258  2.5700000000000D+00  0.0000000000000D+00  0.0000000000000D+00
   259  2.5800000000000D+00  0.0000000000000D+00  0.0000000000000D+00
   260  2.5900000000000D+00  0.0000000000000D+00  0.0000000000000D+00
   261  2.6000000000000D+00  0.0000000000000D+00  0.0000000000000D+00
   262  2.6100000000000D+00  0.0000000000000D+00  0.0000000000000D+00
   263  2.6200000000000D+00  0.0000000000000D+00  0.0000000000000D+00
   264  2.6300000000000D+00  0.0000000000000D+00  0.0000000000000D+00
   265  2.6400000000000D+00  0.0000000000000D+00  0.0000000000000D+00
   266  2.6500000000000D+00  0.0000000000000D+00  0.0000000000000D+00
   267  2.6600000000000D+00  0.0000000000000D+00  0.0000000000000D+00
   268  2.6700000000000D+00  0.0000000000000D+00  0.0000000000000D+00
   269  2.6800000000000D+00  0.0000000000000D+00  0.0000000000000D+00
   270  2.6900000000000D+00  0.0000000000000D+00  0.0000000000000D+00
   271  2.7000000000000D+00  0.0000000000000D+00  0.0000000000000D+00
   272  2.7100000000000D+00  0.0000000000000D+00  0.0000000000000D+00
   273  2.7200000000000D+00  0.0000000000000D+00  0.0000000000000D+00
   274  2.7300000000000D+00  0.0000000000000D+00  0.0000000000000D+00
   275  2.7400000000000D+00  0.0000000000000D+00  0.0000000000000D+00
   276  2.7500000000000D+00  0.0000000000000D+00  0.0000000000000D+00
   277  2.7600000000000D+00  0.0000000000000D+00  0.0000000000000D+00
   278  2.7700000000000D+00  0.0000000000000D+00  0.0000000000000D+00
   279  2.7800000000000D+00  0.0000000000000D+00  0.0000000000000D+00
   280  2.7900000000000D+00  0.0000000000000D+00  0.0000000000000D+00
   281  2.8000000000000D+00  0.0000000000000D+00  0.0000000000000D+00
   282  2.8100000000000D+00  0.0000000000000D+00  0.0000000000000D+00
   283  2.8200000000000D+00  0.0000000000000D+00  0.0000000000000D+00
   284  2.8300000000000D+00  0.0000000000000D+00  0.0000000000000D+00
   285  2.8400000000000D+00  0.0000000000000D+00  0.0000000000000D+00
   286  2.8500000000000D+00  0.0000000000000D+00  0.0000000000000D+00
   287  2.8600000000000D+00  0.0000000000000D+00  0.0000000000000D+00
   288  2.8700000000000D+00  0.0000000000000D+00  0.0000000000000D+00
   289  2.8800000000000D+00  0.0000000000000D+00  0.0000000000000D+00
   290  2.8900000000000D+00  0.0000000000000D+00  0.0000000000000D+00
   291  2.9000000000000D+00  0.0000000000000D+00  0.0000000000000D+00
   292  2.9100000000000D+00  0.0000000000000D+00  0.0000000000000D+00
   293  2.9200000000000D+00  0.0000000000000D+00  0.0000000000000D+00
   294  2.9300000000000D+00  0.0000000000000D+00  0.0000000000000D+00
   295  2.9400000000000D+00  0.0000000000000D+00  0.0000000000000D+00
   296  2.9500000000000D+00  0.0000000000000D+00  0.0000000000000D+00
   297  2.9600000000000D+00  0.0000000000000D+00  0.0000000000000D+00
   298  2.9700000000000D+00  0.0000000000000D+00  0.0000000000000D+00
   299  2.9800000000000D+00  0.0000000000000D+00  0.0000000000000D+00
   300  2.9900000000000D+00  0.0000000000000D+00  0.0000000000000D+00
   301  3.0000000000000D+00  0.0000000000000D+00  0.0000000000000D+00
   302  3.0100000000000D+00  0.0000000000000D+00  0.0000000000000D+00
   303  3.0200000000000D+00  0.0000000000000D+00  0.0000000000000D+00
   304  3.0300000000000D+00  0.0000000000000D+00  0.0000000000000D+00
   305  3.0400000000000D+00  0.0000000000000D+00  0.0000000000000D+00
   306  3.0500000000000D+00  0.0000000000000D+00  0.0000000000000D+00
   307  3.0600000000000D+00  0.0000000000000D+00  0.0000000000000D+00
   308  3.0700000000000D+00  0.0000000000000D+00  0.0000000000000D+00
   309  3.0800000000000D+00  0.0000000000000D+00  0.0000000000000D+00
   310  3.0900000000000D+00  0.0000000000000D+00  0.0000000000000D+00
   311  3.1000000000000D+00  0.0000000000000D+00  0.0000000000000D+00
   312  3.1100000000000D+00  0.0000000000000D+00  0.0000000000000D+00
   313  3.1200000000000D+00  0.0000000000000D+00  0.0000000000000D+00
   314  3.1300000000000D+00  0.0000000000000D+00  0.0000000000000D+00
   315  3.1400000000000D+00  0.0000000000000D+00  0.0000000000000D+00
   316  3.1500000000000D+00  0.0000000000000D+00  0.0000000000000D+00
   317  3.1600000000000D+00  0.0000000000000D+00  0.0000000000000D+00
   318  3.1700000000000D+00  0.0000000000000D+00  0.0000000000000D+00
   319  3.1800000000000D+00  0.0000000000000D+00  0.0000000000000D+00
   320  3.1900000000000D+00  0.0000000000000D+00  0.0000000000000D+00
   321  3.2000000000000D+00  0.0000000000000D+00  0.0000000000000D+00
   322  3.2100000000000D+00  0.0000000000000D+00  0.0000000000000D+00
   323  3.2200000000000D+00  0.0000000000000D+00  0.0000000000000D+00
   324  3.2300000000000D+00  0.0000000000000D+00  0.0000000000000D+00
   325  3.2400000000000D+00  0.0000000000000D+00  0.0000000000000D+00
   326  3.2500000000000D+00  0.0000000000000D+00  0.0000000000000D+00
   327  3.2600000000000D+00  0.0000000000000D+00  0.0000000000000D+00
   328  3.2700000000000D+00  0.0000000000000D+00  0.0000000000000D+00
   329  3.2800000000000D+00  0.0000000000000D+00  0.0000000000000D+00
   330  3.2900000000000D+00  0.0000000000000D+00  0.0000000000000D+00
   331  3.3000000000000D+00  0.0000000000000D+00  0.0000000000000D+00
   332  3.3100000000000D+00  0.0000000000000D+00  0.0000000000000D+00
   333  3.3200000000000D+00  0.0000000000000D+00  0.0000000000000D+00
   334  3.3300000000000D+00  0.0000000000000D+00  0.0000000000000D+00
   335  3.3400000000000D+00  0.0000000000000D+00  0.0000000000000D+00
   336  3.3500000000000D+00  0.0000000000000D+00  0.0000000000000D+00
   337  3.3600000000000D+00  0.0000000000000D+00  0.0000000000000D+00
   338  3.3700000000000D+00  0.0000000000000D+00  0.0000000000000D+00
   339  3.3800000000000D+00  0.0000000000000D+00  0.0000000000000D+00
   340  3.3900000000000D+00  0.0000000000000D+00  0.0000000000000D+00
   341  3.4000000000000D+00  0.0000000000000D+00  0.0000000000000D+00
   342  3.4100000000000D+00  0.0000000000000D+00  0.0000000000000D+00
   343  3.4200000000000D+00  0.0000000000000D+00  0.0000000000000D+00
   344  3.4300000000000D+00  0.0000000000000D+00  0.0000000000000D+00
   345  3.4400000000000D+00  0.0000000000000D+00  0.0000000000000D+00
   346  3.4500000000000D+00  0.0000000000000D+00  0.0000000000000D+00
   347  3.4600000000000D+00  0.0000000000000D+00  0.0000000000000D+00
   348  3.4700000000000D+00  0.0000000000000D+00  0.0000000000000D+00
   349  3.4800000000000D+00  0.0000000000000D+00  0.0000000000000D+00
   350  3.4900000000000D+00  0.0000000000000D+00  0.0000000000000D+00
   351  3.5000000000000D+00  0.0000000000000D+00  0.0000000000000D+00
   352  3.5100000000000D+00  0.0000000000000D+00  0.0000000000000D+00
   353  3.5200000000000D+00  0.0000000000000D+00  0.0000000000000D+00
   354  3.5300000000000D+00  0.0000000000000D+00  0.0000000000000D+00
   355  3.5400000000000D+00  0.0000000000000D+00  0.0000000000000D+00
   356  3.5500000000000D+00  0.0000000000000D+00  0.0000000000000D+00
   357  3.5600000000000D+00  0.0000000000000D+00  0.0000000000000D+00
   358  3.5700000000000D+00  0.0000000000000D+00  0.0000000000000D+00
   359  3.5800000000000D+00  0.0000000000000D+00  0.0000000000000D+00
   360  3.5900000000000D+00  0.0000000000000D+00  0.0000000000000D+00
   361  3.6000000000000D+00  0.0000000000000D+00  0.0000000000000D+00
   362  3.6100000000000D+00  0.0000000000000D+00  0.0000000000000D+00
   363  3.6200000000000D+00  0.0000000000000D+00  0.0000000000000D+00
   364  3.6300000000000D+00  0.0000000000000D+00  0.0000000000000D+00
   365  3.6400000000000D+00  0.0000000000000D+00  0.0000000000000D+00
   366  3.6500000000000D+00  0.0000000000000D+00  0.0000000000000D+00
   367  3.6600000000000D+00  0.0000000000000D+00  0.0000000000000D+00
   368  3.6700000000000D+00  0.0000000000000D+00  0.0000000000000D+00
   369  3.6800000000000D+00  0.0000000000000D+00  0.0000000000000D+00
   370  3.6900000000000D+00  0.0000000000000D+00  0.0000000000000D+00
   371  3.7000000000000D+00  0.0000000000000D+00  0.0000000000000D+00
   372  3.7100000000000D+00  0.0000000000000D+00  0.0000000000000D+00
   373  3.7200000000000D+00  0.0000000000000D+00  0.0000000000000D+00
   374  3.7300000000000D+00  0.0000000000000D+00  0.0000000000000D+00
   375  3.7400000000000D+00  0.0000000000000D+00  0.0000000000000D+00
   376  3.7500000000000D+00  0.0000000000000D+00  0.0000000000000D+00
   377  3.7600000000000D+00  0.0000000000000D+00  0.0000000000000D+00
   378  3.7700000000000D+00  0.0000000000000D+00  0.0000000000000D+00
   379  3.7800000000000D+00  0.0000000000000D+00  0.0000000000000D+00
   380  3.7900000000000D+00  0.0000000000000D+00  0.0000000000000D+00
   381  3.8000000000000D+00  0.0000000000000D+00  0.0000000000000D+00
   382  3.8100000000000D+00  0.0000000000000D+00  0.0000000000000D+00
   383  3.8200000000000D+00  0.0000000000000D+00  0.0000000000000D+00
   384  3.8300000000000D+00  0.0000000000000D+00  0.0000000000000D+00
   385  3.8400000000000D+00  0.0000000000000D+00  0.0000000000000D+00
   386  3.8500000000000D+00  0.0000000000000D+00  0.0000000000000D+00
   387  3.8600000000000D+00  0.0000000000000D+00  0.0000000000000D+00
   388  3.8700000000000D+00  0.0000000000000D+00  0.0000000000000D+00
   389  3.8800000000000D+00  0.0000000000000D+00  0.0000000000000D+00
   390  3.8900000000000D+00  0.0000000000000D+00  0.0000000000000D+00
   391  3.9000000000000D+00  0.0000000000000D+00  0.0000000000000D+00
   392  3.9100000000000D+00  0.0000000000000D+00  0.0000000000000D+00
   393  3.9200000000000D+00  0.0000000000000D+00  0.0000000000000D+00
   394  3.9300000000000D+00  0.0000000000000D+00  0.0000000000000D+00
   395  3.9400000000000D+00  0.0000000000000D+00  0.0000000000000D+00
   396  3.9500000000000D+00  0.0000000000000D+00  0.0000000000000D+00
   397  3.9600000000000D+00  0.0000000000000D+00  0.0000000000000D+00
   398  3.9700000000000D+00  0.0000000000000D+00  0.0000000000000D+00
   399  3.9800000000000D+00  0.0000000000000D+00  0.0000000000000D+00
   400  3.9900000000000D+00  0.0000000000000D+00  0.0000000000000D+00
   401  4.0000000000000D+00  0.0000000000000D+00  0.0000000000000D+00
   402  4.0100000000000D+00  0.0000000000000D+00  0.0000000000000D+00
   403  4.0200000000000D+00  0.0000000000000D+00  0.0000000000000D+00
   404  4.0300000000000D+00  0.0000000000000D+00  0.0000000000000D+00
   405  4.0400000000000D+00  0.0000000000000D+00  0.0000000000000D+00
   406  4.0500000000000D+00  0.0000000000000D+00  0.0000000000000D+00
   407  4.0600000000000D+00  0.0000000000000D+00  0.0000000000000D+00
   408  4.0700000000000D+00  0.0000000000000D+00  0.0000000000000D+00
   409  4.0800000000000D+00  0.0000000000000D+00  0.0000000000000D+00
   410  4.0900000000000D+00  0.0000000000000D+00  0.0000000000000D+00
   411  4.1000000000000D+00  0.0000000000000D+00  0.0000000000000D+00
   412  4.1100000000000D+00  0.0000000000000D+00  0.0000000000000D+00
   413  4.1200000000000D+00  0.0000000000000D+00  0.0000000000000D+00
   414  4.1300000000000D+00  0.0000000000000D+00  0.0000000000000D+00
   415  4.1400000000000D+00  0.0000000000000D+00  0.0000000000000D+00
   416  4.1500000000000D+00  0.0000000000000D+00  0.0000000000000D+00
   417  4.1600000000000D+00  0.0000000000000D+00  0.0000000000000D+00
   418  4.1700000000000D+00  0.0000000000000D+00  0.0000000000000D+00
   419  4.1800000000000D+00  0.0000000000000D+00  0.0000000000000D+00
   420  4.1900000000000D+00  0.0000000000000D+00  0.0000000000000D+00
   421  4.2000000000000D+00  0.0000000000000D+00  0.0000000000000D+00
   422  4.2100000000000D+00  0.0000000000000D+00  0.0000000000000D+00