Au    ONCVPSP-3.3.0  r_core=   1.45604   1.56407   1.56407   1.60183
     79.0000     19.0000      220117    zatom,zion,pspd
     8      11   3     4   500     0    pspcod,pspxc,lmax,lloc,mmax,r2well
  4.99000000  0.00000000  0.00000000    rchrg fchrg qchrg
     2     2     2     1     0    nproj
     1     1           extension_switch
   0                         9.4078840879321D+00 -1.9525321874663D-01
     1  0.0000000000000D+00 -5.1813431323211D-10 -5.3939218647159D-09
     2  1.0000000000000D-02  8.0794012254149D-02  4.6788902049513D-02
     3  2.0000000000000D-02  1.6136784290501D-01  9.3108969818608D-02
     4  3.0000000000000D-02  2.4150234896375D-01  1.3849771074457D-01
     5  4.0000000000000D-02  3.2098045737524D-01  1.8250520278286D-01
     6  5.0000000000000D-02  3.9958818011091D-01  2.2470011791767D-01
     7  6.0000000000000D-02  4.7711560400707D-01  2.6467545519503D-01
     8  7.0000000000000D-02  5.5335784673582D-01  3.0205390230999D-01
     9  8.0000000000000D-02  6.2811597081423D-01  3.3649275017333D-01
    10  9.0000000000000D-02  7.0119784816250D-01  3.6768829143999D-01
    11  1.0000000000000D-01  7.7241896840529D-01  3.9537964159394D-01
    12  1.1000000000000D-01  8.4160318486265D-01  4.1935192973129D-01
    13  1.2000000000000D-01  9.0858339298654D-01  4.3943881552913D-01
    14  1.3000000000000D-01  9.7320213685602D-01  4.5552429888533D-01
    15  1.4000000000000D-01  1.0353121402357D+00  4.6754379920980D-01
    16  1.5000000000000D-01  1.0947767596168D+00  4.7548449217703D-01
    17  1.6000000000000D-01  1.1514703575857D+00  4.7938490274928D-01
    18  1.7000000000000D-01  1.2052785957904D+00  4.7933376428026D-01
    19  1.8000000000000D-01  1.2560986476845D+00  4.7546816434486D-01
    20  1.9000000000000D-01  1.3038393321182D+00  4.6797100844914D-01
    21  2.0000000000000D-01  1.3484211696922D+00  4.5706784279766D-01
    22  2.1000000000000D-01  1.3897763645995D+00  4.4302308668471D-01
    23  2.2000000000000D-01  1.4278487154243D+00  4.2613573369270D-01
    24  2.3000000000000D-01  1.4625934590528D+00  4.0673458859801D-01
    25  2.4000000000000D-01  1.4939770524611D+00  3.8517311359054D-01
    26  2.5000000000000D-01  1.5219768976754D+00  3.6182396300893D-01
    27  2.6000000000000D-01  1.5465810156477D+00  3.3707329020156D-01
    28  2.7000000000000D-01  1.5677876751463D+00  3.1131491327885D-01
    29  2.8000000000000D-01  1.5856049830238D+00  2.8494442838300D-01
    30  2.9000000000000D-01  1.6000504423984D+00  2.5835335964230D-01
    31  3.0000000000000D-01  1.6111504853585D+00  2.3192343419318D-01
    32  3.1000000000000D-01  1.6189399867846D+00  2.0602106855867D-01
    33  3.2000000000000D-01  1.6234617657707D+00  1.8099214929919D-01
    34  3.3000000000000D-01  1.6247660809360D+00  1.5715718625413D-01
    35  3.4000000000000D-01  1.6229101256310D+00  1.3480691093773D-01
    36  3.5000000000000D-01  1.6179575286895D+00  1.1419838582677D-01
    37  3.6000000000000D-01  1.6099778659445D+00  9.5551682481745D-02
    38  3.7000000000000D-01  1.5990461872373D+00  7.9047177791658D-02
    39  3.8000000000000D-01  1.5852425630965D+00  6.4823508251480D-02
    40  3.9000000000000D-01  1.5686516546739D+00  5.2976212208790D-02
    41  4.0000000000000D-01  1.5493623098901D+00  4.3557079595232D-02
    42  4.1000000000000D-01  1.5274671880870D+00  3.6574217941495D-02
    43  4.2000000000000D-01  1.5030624148086D+00  3.1992832616669D-02
    44  4.3000000000000D-01  1.4762472676540D+00  2.9736708390886D-02
    45  4.4000000000000D-01  1.4471238934667D+00  2.9690368749469D-02
    46  4.5000000000000D-01  1.4157970564665D+00  3.1701879045045D-02
    47  4.6000000000000D-01  1.3823739162908D+00  3.5586249706419D-02
    48  4.7000000000000D-01  1.3469638343065D+00  4.1129386476170D-02
    49  4.8000000000000D-01  1.3096782059972D+00  4.8092526155546D-02
    50  4.9000000000000D-01  1.2706303167143D+00  5.6217088719041D-02
    51  5.0000000000000D-01  1.2299352176306D+00  6.5229870035183D-02
    52  5.1000000000000D-01  1.1877096183478D+00  7.4848493892662D-02
    53  5.2000000000000D-01  1.1440717922875D+00  8.4787037662752D-02
    54  5.3000000000000D-01  1.0991414907568D+00  9.4761742801100D-02
    55  5.4000000000000D-01  1.0530398614100D+00  1.0449671955328D-01
    56  5.5000000000000D-01  1.0058893667457D+00  1.1372955470731D-01
    57  5.6000000000000D-01  9.5781369827512D-01  1.2221673205596D-01
    58  5.7000000000000D-01  9.0893768207202D-01  1.2973877737389D-01
    59  5.8000000000000D-01  8.5938717157853D-01  1.3610504317885D-01
    60  5.9000000000000D-01  8.0928892377116D-01  1.4115805325434D-01
    61  6.0000000000000D-01  7.5877045510533D-01  1.4477733286107D-01
    62  6.1000000000000D-01  7.0795987403407D-01  1.4688265760758D-01
    63  6.2000000000000D-01  6.5698568734080D-01  1.4743666206581D-01
    64  6.3000000000000D-01  6.0597657802726D-01  1.4644675826223D-01
    65  6.4000000000000D-01  5.5506115304590D-01  1.4396632399093D-01
    66  6.5000000000000D-01  5.0436765976120D-01  1.4009513147175D-01
    67  6.6000000000000D-01  4.5402367064667D-01  1.3497899791089D-01
    68  6.7000000000000D-01  4.0415573637203D-01  1.2880865096462D-01
    69  6.8000000000000D-01  3.5488900809806D-01  1.2181781381606D-01
    70  6.9000000000000D-01  3.0634683046021D-01  1.1428052629824D-01
    71  7.0000000000000D-01  2.5865030737795D-01  1.0650773011020D-01
    72  7.1000000000000D-01  2.1191784346961D-01  9.8843157578239D-02
    73  7.2000000000000D-01  1.6626466446385D-01  9.1658574332338D-02
    74  7.3000000000000D-01  1.2180232057475D-01  8.5348436608736D-02
    75  7.4000000000000D-01  7.8638177336884D-02  8.0324033501833D-02
    76  7.5000000000000D-01  3.6874898869377D-02  7.7007193171320D-02
    77  7.6000000000000D-01 -3.3900710507651D-03  7.5823639727847D-02
    78  7.7000000000000D-01 -4.2065024387650D-02  7.7196094040969D-02
    79  7.8000000000000D-01 -7.9064494737733D-02  8.1537217004180D-02
    80  7.9000000000000D-01 -1.1430974755439D-01  8.9242497738767D-02
    81  8.0000000000000D-01 -1.4772924845544D-01  1.0068319174489D-01
    82  8.1000000000000D-01 -1.7925910336183D-01  1.1619941506561D-01
    83  8.2000000000000D-01 -2.0884346430661D-01  1.3609350007995D-01
    84  8.3000000000000D-01 -2.3643489493686D-01  1.6062371656983D-01
    85  8.4000000000000D-01 -2.6199469000674D-01  1.8999845822118D-01
    86  8.5000000000000D-01 -2.8549314352514D-01  2.2437098974881D-01
    87  8.6000000000000D-01 -3.0690976067381D-01  2.6383484342378D-01
    88  8.7000000000000D-01 -3.2623340914499D-01  3.0841994600852D-01
    89  8.8000000000000D-01 -3.4346240615783D-01  3.5808954804852D-01
    90  8.9000000000000D-01 -3.5860453809101D-01  4.1273801724972D-01
    91  9.0000000000000D-01 -3.7167701040803D-01  4.7218954640786D-01
    92  9.1000000000000D-01 -3.8270632634184D-01  5.3619781419890D-01
    93  9.2000000000000D-01 -3.9172809363697D-01  6.0444662424477D-01
    94  9.3000000000000D-01 -3.9878675950843D-01  6.7655153440916D-01
    95  9.4000000000000D-01 -4.0393527485732D-01  7.5206247443713D-01
    96  9.5000000000000D-01 -4.0723468966919D-01  8.3046733602022D-01
    97  9.6000000000000D-01 -4.0875368240251D-01  9.1119650534331D-01
    98  9.7000000000000D-01 -4.0856802703600D-01  9.9362829436260D-01
    99  9.8000000000000D-01 -4.0676000227907D-01  1.0770952135941D+00
   100  9.9000000000000D-01 -4.0341774823361D-01  1.1608910164556D+00
   101  1.0000000000000D+00 -3.9863457652512D-01  1.2442784332630D+00
   102  1.0100000000000D+00 -3.9250824060314D-01  1.3264975017052D+00
   103  1.0200000000000D+00 -3.8514017348596D-01  1.4067743910031D+00
   104  1.0300000000000D+00 -3.7663470073498D-01  1.4843306082847D+00
   105  1.0400000000000D+00 -3.6709823685153D-01  1.5583924686238D+00
   106  1.0500000000000D+00 -3.5663847359105D-01  1.6282007046970D+00
   107  1.0600000000000D+00 -3.4536356888570D-01  1.6930200882647D+00
   108  1.0700000000000D+00 -3.3338134515726D-01  1.7521489333899D+00
   109  1.0800000000000D+00 -3.2079850575750D-01  1.8049283513216D+00
   110  1.0900000000000D+00 -3.0771987812457D-01  1.8507511284985D+00
   111  1.1000000000000D+00 -2.9424769194765D-01  1.8890701030110D+00
   112  1.1100000000000D+00 -2.8048090031652D-01  1.9194059191443D+00
   113  1.1200000000000D+00 -2.6651455123753D-01  1.9413540481236D+00
   114  1.1300000000000D+00 -2.5243921636658D-01  1.9545909709253D+00
   115  1.1400000000000D+00 -2.3834048296428D-01  1.9588794315320D+00
   116  1.1500000000000D+00 -2.2429851455305D-01  1.9540726768004D+00
   117  1.1600000000000D+00 -2.1038768453662D-01  1.9401176174571D+00
   118  1.1700000000000D+00 -1.9667628628901D-01  1.9170568561764D+00
   119  1.1800000000000D+00 -1.8322632206021D-01  1.8850295463527D+00
   120  1.1900000000000D+00 -1.7009337228291D-01  1.8442710568087D+00
   121  1.2000000000000D+00 -1.5732654534009D-01  1.7951114410808D+00
   122  1.2100000000000D+00 -1.4496850690142D-01  1.7379727246329D+00
   123  1.2200000000000D+00 -1.3305558710289D-01  1.6733650361837D+00
   124  1.2300000000000D+00 -1.2161796234348D-01  1.6018816325542D+00
   125  1.2400000000000D+00 -1.1067990744421D-01  1.5241928824579D+00
   126  1.2500000000000D+00 -1.0026011314997D-01  1.4410392865424D+00
   127  1.2600000000000D+00 -9.0372062860710D-02  1.3532236280180D+00
   128  1.2700000000000D+00 -8.1024461272424D-02  1.2616023670811D+00
   129  1.2800000000000D+00 -7.2221707271440D-02  1.1670763976353D+00
   130  1.2900000000000D+00 -6.3964402541080D-02  1.0705812986274D+00
   131  1.3000000000000D+00 -5.6249886424507D-02  9.7307722675079D-01
   132  1.3100000000000D+00 -4.9072787649010D-02  8.7553859629878D-01
   133  1.3200000000000D+00 -4.2425582733589D-02  7.7894370428168D-01
   134  1.3300000000000D+00 -3.6299150815337D-02  6.8426446035722D-01
   135  1.3400000000000D+00 -3.0683314679844D-02  5.9245638031399D-01
   136  1.3500000000000D+00 -2.5567357416471D-02  5.0444900767102D-01
   137  1.3600000000000D+00 -2.0940503771857D-02  4.2113694910032D-01
   138  1.3700000000000D+00 -1.6792364446830D-02  3.4337144791484D-01
   139  1.3800000000000D+00 -1.3113298399347D-02  2.7195359560255D-01
   140  1.3900000000000D+00 -9.8948233976392D-03  2.0762569430437D-01
   141  1.4000000000000D+00 -7.1297038168289D-03  1.5107029938795D-01
   142  1.4100000000000D+00 -4.8132816639696D-03  1.0293096786088D-01
   143  1.4200000000000D+00 -2.9394269070545D-03  6.3668981857010D-02
   144  1.4300000000000D+00 -1.5018643962652D-03  3.3522834489194D-02
   145  1.4400000000000D+00 -5.3452017875700D-04  1.3499497158600D-02
   146  1.4500000000000D+00 -3.8317553464958D-05  3.5024740958492D-03
   147  1.4600000000000D+00  9.1068273066220D-05  1.5887767450707D-04
   148  1.4700000000000D+00  2.9057268806527D-05 -1.3345301860734D-04
   149  1.4800000000000D+00 -1.8572344417304D-05  1.1517963622483D-04
   150  1.4900000000000D+00 -3.3453614706575D-06  2.3876474137558D-05
   151  1.5000000000000D+00  3.7851067566659D-06 -1.7759005991694D-05
   152  1.5100000000000D+00 -4.0064597831263D-08 -5.1031075853647D-07
   153  1.5200000000000D+00 -1.9805040356615D-07 -2.5226074175998D-06
   154  1.5300000000000D+00  0.0000000000000D+00  0.0000000000000D+00
   155  1.5400000000000D+00  0.0000000000000D+00  0.0000000000000D+00
   156  1.5500000000000D+00  0.0000000000000D+00  0.0000000000000D+00
   157  1.5600000000000D+00  0.0000000000000D+00  0.0000000000000D+00
   158  1.5700000000000D+00  0.0000000000000D+00  0.0000000000000D+00
   159  1.5800000000000D+00  0.0000000000000D+00  0.0000000000000D+00
   160  1.5900000000000D+00  0.0000000000000D+00  0.0000000000000D+00
   161  1.6000000000000D+00  0.0000000000000D+00  0.0000000000000D+00
   162  1.6100000000000D+00  0.0000000000000D+00  0.0000000000000D+00
   163  1.6200000000000D+00  0.0000000000000D+00  0.0000000000000D+00
   164  1.6300000000000D+00  0.0000000000000D+00  0.0000000000000D+00
   165  1.6400000000000D+00  0.0000000000000D+00  0.0000000000000D+00
   166  1.6500000000000D+00  0.0000000000000D+00  0.0000000000000D+00
   167  1.6600000000000D+00  0.0000000000000D+00  0.0000000000000D+00
   168  1.6700000000000D+00  0.0000000000000D+00  0.0000000000000D+00
   169  1.6800000000000D+00  0.0000000000000D+00  0.0000000000000D+00
   170  1.6900000000000D+00  0.0000000000000D+00  0.0000000000000D+00
   171  1.7000000000000D+00  0.0000000000000D+00  0.0000000000000D+00
   172  1.7100000000000D+00  0.0000000000000D+00  0.0000000000000D+00
   173  1.7200000000000D+00  0.0000000000000D+00  0.0000000000000D+00
   174  1.7300000000000D+00  0.0000000000000D+00  0.0000000000000D+00
   175  1.7400000000000D+00  0.0000000000000D+00  0.0000000000000D+00
   176  1.7500000000000D+00  0.0000000000000D+00  0.0000000000000D+00
   177  1.7600000000000D+00  0.0000000000000D+00  0.0000000000000D+00
   178  1.7700000000000D+00  0.0000000000000D+00  0.0000000000000D+00
   179  1.7800000000000D+00  0.0000000000000D+00  0.0000000000000D+00
   180  1.7900000000000D+00  0.0000000000000D+00  0.0000000000000D+00
   181  1.8000000000000D+00  0.0000000000000D+00  0.0000000000000D+00
   182  1.8100000000000D+00  0.0000000000000D+00  0.0000000000000D+00
   183  1.8200000000000D+00  0.0000000000000D+00  0.0000000000000D+00
   184  1.8300000000000D+00  0.0000000000000D+00  0.0000000000000D+00
   185  1.8400000000000D+00  0.0000000000000D+00  0.0000000000000D+00
   186  1.8500000000000D+00  0.0000000000000D+00  0.0000000000000D+00
   187  1.8600000000000D+00  0.0000000000000D+00  0.0000000000000D+00
   188  1.8700000000000D+00  0.0000000000000D+00  0.0000000000000D+00
   189  1.8800000000000D+00  0.0000000000000D+00  0.0000000000000D+00
   190  1.8900000000000D+00  0.0000000000000D+00  0.0000000000000D+00
   191  1.9000000000000D+00  0.0000000000000D+00  0.0000000000000D+00
   192  1.9100000000000D+00  0.0000000000000D+00  0.0000000000000D+00
   193  1.9200000000000D+00  0.0000000000000D+00  0.0000000000000D+00
   194  1.9300000000000D+00  0.0000000000000D+00  0.0000000000000D+00
   195  1.9400000000000D+00  0.0000000000000D+00  0.0000000000000D+00
   196  1.9500000000000D+00  0.0000000000000D+00  0.0000000000000D+00
   197  1.9600000000000D+00  0.0000000000000D+00  0.0000000000000D+00
   198  1.9700000000000D+00  0.0000000000000D+00  0.0000000000000D+00
   199  1.9800000000000D+00  0.0000000000000D+00  0.0000000000000D+00
   200  1.9900000000000D+00  0.0000000000000D+00  0.0000000000000D+00
   201  2.0000000000000D+00  0.0000000000000D+00  0.0000000000000D+00
   202  2.0100000000000D+00  0.0000000000000D+00  0.0000000000000D+00
   203  2.0200000000000D+00  0.0000000000000D+00  0.0000000000000D+00
   204  2.0300000000000D+00  0.0000000000000D+00  0.0000000000000D+00
   205  2.0400000000000D+00  0.0000000000000D+00  0.0000000000000D+00
   206  2.0500000000000D+00  0.0000000000000D+00  0.0000000000000D+00
   207  2.0600000000000D+00  0.0000000000000D+00  0.0000000000000D+00
   208  2.0700000000000D+00  0.0000000000000D+00  0.0000000000000D+00
   209  2.0800000000000D+00  0.0000000000000D+00  0.0000000000000D+00
   210  2.0900000000000D+00  0.0000000000000D+00  0.0000000000000D+00
   211  2.1000000000000D+00  0.0000000000000D+00  0.0000000000000D+00
   212  2.1100000000000D+00  0.0000000000000D+00  0.0000000000000D+00
   213  2.1200000000000D+00  0.0000000000000D+00  0.0000000000000D+00
   214  2.1300000000000D+00  0.0000000000000D+00  0.0000000000000D+00
   215  2.1400000000000D+00  0.0000000000000D+00  0.0000000000000D+00
   216  2.1500000000000D+00  0.0000000000000D+00  0.0000000000000D+00
   217  2.1600000000000D+00  0.0000000000000D+00  0.0000000000000D+00
   218  2.1700000000000D+00  0.0000000000000D+00  0.0000000000000D+00
   219  2.1800000000000D+00  0.0000000000000D+00  0.0000000000000D+00
   220  2.1900000000000D+00  0.0000000000000D+00  0.0000000000000D+00
   221  2.2000000000000D+00  0.0000000000000D+00  0.0000000000000D+00
   222  2.2100000000000D+00  0.0000000000000D+00  0.0000000000000D+00
   223  2.2200000000000D+00  0.0000000000000D+00  0.0000000000000D+00
   224  2.2300000000000D+00  0.0000000000000D+00  0.0000000000000D+00
   225  2.2400000000000D+00  0.0000000000000D+00  0.0000000000000D+00
   226  2.2500000000000D+00  0.0000000000000D+00  0.0000000000000D+00
   227  2.2600000000000D+00  0.0000000000000D+00  0.0000000000000D+00
   228  2.2700000000000D+00  0.0000000000000D+00  0.0000000000000D+00
   229  2.2800000000000D+00  0.0000000000000D+00  0.0000000000000D+00
   230  2.2900000000000D+00  0.0000000000000D+00  0.0000000000000D+00
   231  2.3000000000000D+00  0.0000000000000D+00  0.0000000000000D+00
   232  2.3100000000000D+00  0.0000000000000D+00  0.0000000000000D+00
   233  2.3200000000000D+00  0.0000000000000D+00  0.0000000000000D+00
   234  2.3300000000000D+00  0.0000000000000D+00  0.0000000000000D+00
   235  2.3400000000000D+00  0.0000000000000D+00  0.0000000000000D+00
   236  2.3500000000000D+00  0.0000000000000D+00  0.0000000000000D+00
   237  2.3600000000000D+00  0.0000000000000D+00  0.0000000000000D+00
   238  2.3700000000000D+00  0.0000000000000D+00  0.0000000000000D+00
   239  2.3800000000000D+00  0.0000000000000D+00  0.0000000000000D+00
   240  2.3900000000000D+00  0.0000000000000D+00  0.0000000000000D+00
   241  2.4000000000000D+00  0.0000000000000D+00  0.0000000000000D+00
   242  2.4100000000000D+00  0.0000000000000D+00  0.0000000000000D+00
   243  2.4200000000000D+00  0.0000000000000D+00  0.0000000000000D+00
   244  2.4300000000000D+00  0.0000000000000D+00  0.0000000000000D+00
   245  2.4400000000000D+00  0.0000000000000D+00  0.0000000000000D+00
   246  2.4500000000000D+00  0.0000000000000D+00  0.0000000000000D+00
   247  2.4600000000000D+00  0.0000000000000D+00  0.0000000000000D+00
   248  2.4700000000000D+00  0.0000000000000D+00  0.0000000000000D+00
   249  2.4800000000000D+00  0.0000000000000D+00  0.0000000000000D+00
   250  2.4900000000000D+00  0.0000000000000D+00  0.0000000000000D+00
   251  2.5000000000000D+00  0.0000000000000D+00  0.0000000000000D+00
   252  2.5100000000000D+00  0.0000000000000D+00  0.0000000000000D+00
   253  2.5200000000000D+00  0.0000000000000D+00  0.0000000000000D+00
   254  2.5300000000000D+00  0.0000000000000D+00  0.0000000000000D+00
   255  2.5400000000000D+00  0.0000000000000D+00  0.0000000000000D+00
   256  2.5500000000000D+00  0.0000000000000D+00  0.0000000000000D+00
   257  2.5600000000000D+00  0.0000000000000D+00  0.0000000000000D+00
   258  2.5700000000000D+00  0.0000000000000D+00  0.0000000000000D+00
   259  2.5800000000000D+00  0.0000000000000D+00  0.0000000000000D+00
   260  2.5900000000000D+00  0.0000000000000D+00  0.0000000000000D+00
   261  2.6000000000000D+00  0.0000000000000D+00  0.0000000000000D+00
   262  2.6100000000000D+00  0.0000000000000D+00  0.0000000000000D+00
   263  2.6200000000000D+00  0.0000000000000D+00  0.0000000000000D+00
   264  2.6300000000000D+00  0.0000000000000D+00  0.0000000000000D+00
   265  2.6400000000000D+00  0.0000000000000D+00  0.0000000000000D+00
   266  2.6500000000000D+00  0.0000000000000D+00  0.0000000000000D+00
   267  2.6600000000000D+00  0.0000000000000D+00  0.0000000000000D+00
   268  2.6700000000000D+00  0.0000000000000D+00  0.0000000000000D+00
   269  2.6800000000000D+00  0.0000000000000D+00  0.0000000000000D+00
   270  2.6900000000000D+00  0.0000000000000D+00  0.0000000000000D+00
   271  2.7000000000000D+00  0.0000000000000D+00  0.0000000000000D+00
   272  2.7100000000000D+00  0.0000000000000D+00  0.0000000000000D+00
   273  2.7200000000000D+00  0.0000000000000D+00  0.0000000000000D+00
   274  2.7300000000000D+00  0.0000000000000D+00  0.0000000000000D+00
   275  2.7400000000000D+00  0.0000000000000D+00  0.0000000000000D+00
   276  2.7500000000000D+00  0.0000000000000D+00  0.0000000000000D+00
   277  2.7600000000000D+00  0.0000000000000D+00  0.0000000000000D+00
   278  2.7700000000000D+00  0.0000000000000D+00  0.0000000000000D+00
   279  2.7800000000000D+00  0.0000000000000D+00  0.0000000000000D+00
   280  2.7900000000000D+00  0.0000000000000D+00  0.0000000000000D+00
   281  2.8000000000000D+00  0.0000000000000D+00  0.0000000000000D+00
   282  2.8100000000000D+00  0.0000000000000D+00  0.0000000000000D+00
   283  2.8200000000000D+00  0.0000000000000D+00  0.0000000000000D+00
   284  2.8300000000000D+00  0.0000000000000D+00  0.0000000000000D+00
   285  2.8400000000000D+00  0.0000000000000D+00  0.0000000000000D+00
   286  2.8500000000000D+00  0.0000000000000D+00  0.0000000000000D+00
   287  2.8600000000000D+00  0.0000000000000D+00  0.0000000000000D+00
   288  2.8700000000000D+00  0.0000000000000D+00  0.0000000000000D+00
   289  2.8800000000000D+00  0.0000000000000D+00  0.0000000000000D+00
   290  2.8900000000000D+00  0.0000000000000D+00  0.0000000000000D+00
   291  2.9000000000000D+00  0.0000000000000D+00  0.0000000000000D+00
   292  2.9100000000000D+00  0.0000000000000D+00  0.0000000000000D+00
   293  2.9200000000000D+00  0.0000000000000D+00  0.0000000000000D+00
   294  2.9300000000000D+00  0.0000000000000D+00  0.0000000000000D+00
   295  2.9400000000000D+00  0.0000000000000D+00  0.0000000000000D+00
   296  2.9500000000000D+00  0.0000000000000D+00  0.0000000000000D+00
   297  2.9600000000000D+00  0.0000000000000D+00  0.0000000000000D+00
   298  2.9700000000000D+00  0.0000000000000D+00  0.0000000000000D+00
   299  2.9800000000000D+00  0.0000000000000D+00  0.0000000000000D+00
   300  2.9900000000000D+00  0.0000000000000D+00  0.0000000000000D+00
   301  3.0000000000000D+00  0.0000000000000D+00  0.0000000000000D+00
   302  3.0100000000000D+00  0.0000000000000D+00  0.0000000000000D+00
   303  3.0200000000000D+00  0.0000000000000D+00  0.0000000000000D+00
   304  3.0300000000000D+00  0.0000000000000D+00  0.0000000000000D+00
   305  3.0400000000000D+00  0.0000000000000D+00  0.0000000000000D+00
   306  3.0500000000000D+00  0.0000000000000D+00  0.0000000000000D+00
   307  3.0600000000000D+00  0.0000000000000D+00  0.0000000000000D+00
   308  3.0700000000000D+00  0.0000000000000D+00  0.0000000000000D+00
   309  3.0800000000000D+00  0.0000000000000D+00  0.0000000000000D+00
   310  3.0900000000000D+00  0.0000000000000D+00  0.0000000000000D+00
   311  3.1000000000000D+00  0.0000000000000D+00  0.0000000000000D+00
   312  3.1100000000000D+00  0.0000000000000D+00  0.0000000000000D+00
   313  3.1200000000000D+00  0.0000000000000D+00  0.0000000000000D+00
   314  3.1300000000000D+00  0.0000000000000D+00  0.0000000000000D+00
   315  3.1400000000000D+00  0.0000000000000D+00  0.0000000000000D+00
   316  3.1500000000000D+00  0.0000000000000D+00  0.0000000000000D+00
   317  3.1600000000000D+00  0.0000000000000D+00  0.0000000000000D+00
   318  3.1700000000000D+00  0.0000000000000D+00  0.0000000000000D+00
   319  3.1800000000000D+00  0.0000000000000D+00  0.0000000000000D+00
   320  3.1900000000000D+00  0.0000000000000D+00  0.0000000000000D+00
   321  3.2000000000000D+00  0.0000000000000D+00  0.0000000000000D+00
   322  3.2100000000000D+00  0.0000000000000D+00  0.0000000000000D+00
   323  3.2200000000000D+00  0.0000000000000D+00  0.0000000000000D+00
   324  3.2300000000000D+00  0.0000000000000D+00  0.0000000000000D+00
   325  3.2400000000000D+00  0.0000000000000D+00  0.0000000000000D+00
   326  3.2500000000000D+00  0.0000000000000D+00  0.0000000000000D+00
   327  3.2600000000000D+00  0.0000000000000D+00  0.0000000000000D+00
   328  3.2700000000000D+00  0.0000000000000D+00  0.0000000000000D+00
   329  3.2800000000000D+00  0.0000000000000D+00  0.0000000000000D+00
   330  3.2900000000000D+00  0.0000000000000D+00  0.0000000000000D+00
   331  3.3000000000000D+00  0.0000000000000D+00  0.0000000000000D+00
   332  3.3100000000000D+00  0.0000000000000D+00  0.0000000000000D+00
   333  3.3200000000000D+00  0.0000000000000D+00  0.0000000000000D+00
   334  3.3300000000000D+00  0.0000000000000D+00  0.0000000000000D+00
   335  3.3400000000000D+00  0.0000000000000D+00  0.0000000000000D+00
   336  3.3500000000000D+00  0.0000000000000D+00  0.0000000000000D+00
   337  3.3600000000000D+00  0.0000000000000D+00  0.0000000000000D+00
   338  3.3700000000000D+00  0.0000000000000D+00  0.0000000000000D+00
   339  3.3800000000000D+00  0.0000000000000D+00  0.0000000000000D+00
   340  3.3900000000000D+00  0.0000000000000D+00  0.0000000000000D+00
   341  3.4000000000000D+00  0.0000000000000D+00  0.0000000000000D+00
   342  3.4100000000000D+00  0.0000000000000D+00  0.0000000000000D+00
   343  3.4200000000000D+00  0.0000000000000D+00  0.0000000000000D+00
   344  3.4300000000000D+00  0.0000000000000D+00  0.0000000000000D+00
   345  3.4400000000000D+00  0.0000000000000D+00  0.0000000000000D+00
   346  3.4500000000000D+00  0.0000000000000D+00  0.0000000000000D+00
   347  3.4600000000000D+00  0.0000000000000D+00  0.0000000000000D+00
   348  3.4700000000000D+00  0.0000000000000D+00  0.0000000000000D+00
   349  3.4800000000000D+00  0.0000000000000D+00  0.0000000000000D+00
   350  3.4900000000000D+00  0.0000000000000D+00  0.0000000000000D+00
   351  3.5000000000000D+00  0.0000000000000D+00  0.0000000000000D+00
   352  3.5100000000000D+00  0.0000000000000D+00  0.0000000000000D+00
   353  3.5200000000000D+00  0.0000000000000D+00  0.0000000000000D+00
   354  3.5300000000000D+00  0.0000000000000D+00  0.0000000000000D+00
   355  3.5400000000000D+00  0.0000000000000D+00  0.0000000000000D+00
   356  3.5500000000000D+00  0.0000000000000D+00  0.0000000000000D+00
   357  3.5600000000000D+00  0.0000000000000D+00  0.0000000000000D+00
   358  3.5700000000000D+00  0.0000000000000D+00  0.0000000000000D+00
   359  3.5800000000000D+00  0.0000000000000D+00  0.0000000000000D+00
   360  3.5900000000000D+00  0.0000000000000D+00  0.0000000000000D+00
   361  3.6000000000000D+00  0.0000000000000D+00  0.0000000000000D+00
   362  3.6100000000000D+00  0.0000000000000D+00  0.0000000000000D+00
   363  3.6200000000000D+00  0.0000000000000D+00  0.0000000000000D+00
   364  3.6300000000000D+00  0.0000000000000D+00  0.0000000000000D+00
   365  3.6400000000000D+00  0.0000000000000D+00  0.0000000000000D+00
   366  3.6500000000000D+00  0.0000000000000D+00  0.0000000000000D+00
   367  3.6600000000000D+00  0.0000000000000D+00  0.0000000000000D+00
   368  3.6700000000000D+00  0.0000000000000D+00  0.0000000000000D+00
   369  3.6800000000000D+00  0.0000000000000D+00  0.0000000000000D+00
   370  3.6900000000000D+00  0.0000000000000D+00  0.0000000000000D+00
   371  3.7000000000000D+00  0.0000000000000D+00  0.0000000000000D+00
   372  3.7100000000000D+00  0.0000000000000D+00  0.0000000000000D+00
   373  3.7200000000000D+00  0.0000000000000D+00  0.0000000000000D+00
   374  3.7300000000000D+00  0.0000000000000D+00  0.0000000000000D+00
   375  3.7400000000000D+00  0.0000000000000D+00  0.0000000000000D+00
   376  3.7500000000000D+00  0.0000000000000D+00  0.0000000000000D+00
   377  3.7600000000000D+00  0.0000000000000D+00  0.0000000000000D+00
   378  3.7700000000000D+00  0.0000000000000D+00  0.0000000000000D+00
   379  3.7800000000000D+00  0.0000000000000D+00  0.0000000000000D+00
   380  3.7900000000000D+00  0.0000000000000D+00  0.0000000000000D+00
   381  3.8000000000000D+00  0.0000000000000D+00  0.0000000000000D+00
   382  3.8100000000000D+00  0.0000000000000D+00  0.0000000000000D+00
   383  3.8200000000000D+00  0.0000000000000D+00  0.0000000000000D+00
   384  3.8300000000000D+00  0.0000000000000D+00  0.0000000000000D+00
   385  3.8400000000000D+00  0.0000000000000D+00  0.0000000000000D+00
   386  3.8500000000000D+00  0.0000000000000D+00  0.0000000000000D+00
   387  3.8600000000000D+00  0.0000000000000D+00  0.0000000000000D+00
   388  3.8700000000000D+00  0.0000000000000D+00  0.0000000000000D+00
   389  3.8800000000000D+00  0.0000000000000D+00  0.0000000000000D+00
   390  3.8900000000000D+00  0.0000000000000D+00  0.0000000000000D+00
   391  3.9000000000000D+00  0.0000000000000D+00  0.0000000000000D+00
   392  3.9100000000000D+00  0.0000000000000D+00  0.0000000000000D+00
   393  3.9200000000000D+00  0.0000000000000D+00  0.0000000000000D+00
   394  3.9300000000000D+00  0.0000000000000D+00  0.0000000000000D+00
   395  3.9400000000000D+00  0.0000000000000D+00  0.0000000000000D+00
   396  3.9500000000000D+00  0.0000000000000D+00  0.0000000000000D+00
   397  3.9600000000000D+00  0.0000000000000D+00  0.0000000000000D+00
   398  3.9700000000000D+00  0.0000000000000D+00  0.0000000000000D+00
   399  3.9800000000000D+00  0.0000000000000D+00  0.0000000000000D+00
   400  3.9900000000000D+00  0.0000000000000D+00  0.0000000000000D+00
   401  4.0000000000000D+00  0.0000000000000D+00  0.0000000000000D+00
   402  4.0100000000000D+00  0.0000000000000D+00  0.0000000000000D+00
   403  4.0200000000000D+00  0.0000000000000D+00  0.0000000000000D+00
   404  4.0300000000000D+00  0.0000000000000D+00  0.0000000000000D+00
   405  4.0400000000000D+00  0.0000000000000D+00  0.0000000000000D+00
   406  4.0500000000000D+00  0.0000000000000D+00  0.0000000000000D+00
   407  4.0600000000000D+00  0.0000000000000D+00  0.0000000000000D+00
   408  4.0700000000000D+00  0.0000000000000D+00  0.0000000000000D+00
   409  4.0800000000000D+00  0.0000000000000D+00  0.0000000000000D+00
   410  4.0900000000000D+00  0.0000000000000D+00  0.0000000000000D+00
   411  4.1000000000000D+00  0.0000000000000D+00  0.0000000000000D+00
   412  4.1100000000000D+00  0.0000000000000D+00  0.0000000000000D+00
   413  4.1200000000000D+00  0.0000000000000D+00  0.0000000000000D+00
   414  4.1300000000000D+00  0.0000000000000D+00  0.0000000000000D+00
   415  4.1400000000000D+00  0.0000000000000D+00  0.0000000000000D+00
   416  4.1500000000000D+00  0.0000000000000D+00  0.0000000000000D+00
   417  4.1600000000000D+00  0.0000000000000D+00  0.0000000000000D+00
   418  4.1700000000000D+00  0.0000000000000D+00  0.0000000000000D+00
   419  4.1800000000000D+00  0.0000000000000D+00  0.0000000000000D+00
   420  4.1900000000000D+00  0.0000000000000D+00  0.0000000000000D+00
   421  4.2000000000000D+00  0.0000000000000D+00  0.0000000000000D+00
   422  4.2100000000000D+00  0.0000000000000D+00  0.0000000000000D+00