P     ONCVPSP-3.3.0  r_core=   1.40954   1.60717   1.81079
     15.0000     13.0000      220117    zatom,zion,pspd
     8      11   2     4   600     0    pspcod,pspxc,lmax,lloc,mmax,r2well
  5.99000000  0.00000000  0.00000000    rchrg fchrg qchrg
     2     2     2     0     0    nproj
     1     1           extension_switch
   0                        -4.8633398962374D+00 -7.3620122762824D-01
     1  0.0000000000000D+00 -2.6627366978005D-11  6.8463057445456D-10
     2  1.0000000000000D-02  7.2150944410294D-02 -5.6037238988001D-02
     3  2.0000000000000D-02  1.4414807596203D-01 -1.1179283563633D-01
     4  3.0000000000000D-02  2.1583801442933D-01 -1.6698668987643D-01
     5  4.0000000000000D-02  2.8706824345451D-01 -2.2134177272028D-01
     6  5.0000000000000D-02  3.5768753899606D-01 -2.7458562832416D-01
     7  6.0000000000000D-02  4.2754639361247D-01 -3.2645183637611D-01
     8  7.0000000000000D-02  4.9649743522533D-01 -3.7668142239878D-01
     9  8.0000000000000D-02  5.6439583903198D-01 -4.2502420424430D-01
    10  9.0000000000000D-02  6.3109973127035D-01 -4.7124006389321D-01
    11  1.0000000000000D-01  6.9647058357712D-01 -5.1510013464387D-01
    12  1.1000000000000D-01  7.6037359672353D-01 -5.5638789487651D-01
    13  1.2000000000000D-01  8.2267807256157D-01 -5.9490016078057D-01
    14  1.3000000000000D-01  8.8325777306521D-01 -6.3044797172666D-01
    15  1.4000000000000D-01  9.4199126540727D-01 -6.6285736332585D-01
    16  1.5000000000000D-01  9.9876225207111D-01 -6.9197002462815D-01
    17  1.6000000000000D-01  1.0534598850571D+00 -7.1764383734667D-01
    18  1.7000000000000D-01  1.1059790633065D+00 -7.3975329643385D-01
    19  1.8000000000000D-01  1.1562207125292D+00 -7.5818981275742D-01
    20  1.9000000000000D-01  1.2040920466846D+00 -7.7286190000594D-01
    21  2.0000000000000D-01  1.2495068104306D+00 -7.8369524927570D-01
    22  2.1000000000000D-01  1.2923855019169D+00 -7.9063269603216D-01
    23  2.2000000000000D-01  1.3326555753616D+00 -7.9363408528106D-01
    24  2.3000000000000D-01  1.3702516229110D+00 -7.9267604181070D-01
    25  2.4000000000000D-01  1.4051155353400D+00 -7.8775165326112D-01
    26  2.5000000000000D-01  1.4371966412069D+00 -7.7887007452613D-01
    27  2.6000000000000D-01  1.4664518241314D+00 -7.6605606258851D-01
    28  2.7000000000000D-01  1.4928456179149D+00 -7.4934945132035D-01
    29  2.8000000000000D-01  1.5163502792719D+00 -7.2880457604238D-01
    30  2.9000000000000D-01  1.5369458379883D+00 -7.0448965772725D-01
    31  3.0000000000000D-01  1.5546201243657D+00 -6.7648615665010D-01
    32  3.1000000000000D-01  1.5693687738547D+00 -6.4488810504154D-01
    33  3.2000000000000D-01  1.5811952088216D+00 -6.0980142788488D-01
    34  3.3000000000000D-01  1.5901105974302D+00 -5.7134326043478D-01
    35  3.4000000000000D-01  1.5961337896620D+00 -5.2964127032479D-01
    36  3.5000000000000D-01  1.5992912305371D+00 -4.8483299129433D-01
    37  3.6000000000000D-01  1.5996168506342D+00 -4.3706517461493D-01
    38  3.7000000000000D-01  1.5971519340529D+00 -3.8649316325005D-01
    39  3.8000000000000D-01  1.5919449639992D+00 -3.3328029266250D-01
    40  3.9000000000000D-01  1.5840514462219D+00 -2.7759732100930D-01
    41  4.0000000000000D-01  1.5735337105732D+00 -2.1962189025787D-01
    42  4.1000000000000D-01  1.5604606910167D+00 -1.5953801854363D-01
    43  4.2000000000000D-01  1.5449076844611D+00 -9.7535622889863D-02
    44  4.3000000000000D-01  1.5269560888552D+00 -3.3810070249928D-02
    45  4.4000000000000D-01  1.5066931210439D+00  3.1438246267422D-02
    46  4.5000000000000D-01  1.4842115149519D+00  9.8004310144553D-02
    47  4.6000000000000D-01  1.4596092007359D+00  1.6567886824039D-01
    48  4.7000000000000D-01  1.4329889656250D+00  2.3424880746923D-01
    49  4.8000000000000D-01  1.4044580972517D+00  3.0349752787541D-01
    50  4.9000000000000D-01  1.3741280103657D+00  3.7320531909644D-01
    51  5.0000000000000D-01  1.3421138579149D+00  4.4314974753099D-01
    52  5.1000000000000D-01  1.3085341275784D+00  5.1310606167221D-01
    53  5.2000000000000D-01  1.2735102249334D+00  5.8284762302708D-01
    54  5.3000000000000D-01  1.2371660445453D+00  6.5214636981484D-01
    55  5.4000000000000D-01  1.1996275303748D+00  7.2077332022161D-01
    56  5.5000000000000D-01  1.1610222270020D+00  7.8849912138699D-01
    57  5.6000000000000D-01  1.1214788232737D+00  8.5509464952211D-01
    58  5.7000000000000D-01  1.0811266900853D+00  9.2033166560989D-01
    59  5.8000000000000D-01  1.0400954141080D+00  9.8398353004123D-01
    60  5.9000000000000D-01  9.9851432937077D-01  1.0458259782996D+00
    61  6.0000000000000D-01  9.5651204869436D-01  1.1056379584552D+00
    62  6.1000000000000D-01  9.1421599705807D-01  1.1632025297705D+00
    63  6.2000000000000D-01  8.7175194905284D-01  1.2183078202058D+00
    64  6.3000000000000D-01  8.2924357263501D-01  1.2707480390307D+00
    65  6.4000000000000D-01  7.8681198144420D-01  1.3203245391727D+00
    66  6.5000000000000D-01  7.4457529798293D-01  1.3668469223507D+00
    67  6.6000000000000D-01  7.0264822997445D-01  1.4101341785082D+00
    68  6.7000000000000D-01  6.6114166221622D-01  1.4500158495970D+00
    69  6.8000000000000D-01  6.2016226622972D-01  1.4863332064006D+00
    70  6.9000000000000D-01  5.7981212997072D-01  1.5189404258425D+00
    71  7.0000000000000D-01  5.4018840980734D-01  1.5477057551541D+00
    72  7.1000000000000D-01  5.0138300689566D-01  1.5725126483708D+00
    73  7.2000000000000D-01  4.6348226998356D-01  1.5932608599333D+00
    74  7.3000000000000D-01  4.2656672655274D-01  1.6098674796960D+00
    75  7.4000000000000D-01  3.9071084406715D-01  1.6222678934198D+00
    76  7.5000000000000D-01  3.5598282293302D-01  1.6304166528458D+00
    77  7.6000000000000D-01  3.2244442259207D-01  1.6342882397417D+00
    78  7.7000000000000D-01  2.9015082196772D-01  1.6338777088648D+00
    79  7.8000000000000D-01  2.5915051526237D-01  1.6292011956245D+00
    80  7.9000000000000D-01  2.2948524386707D-01  1.6202962753186D+00
    81  8.0000000000000D-01  2.0118996489297D-01  1.6072221621832D+00
    82  8.1000000000000D-01  1.7429285656917D-01  1.5900597381000D+00
    83  8.2000000000000D-01  1.4881536047679D-01  1.5689114026461D+00
    84  8.3000000000000D-01  1.2477226030653D-01  1.5439007382238D+00
    85  8.4000000000000D-01  1.0217179653941D-01  1.5151719862426D+00
    86  8.5000000000000D-01  8.1015816160827D-02  1.4828893327235D+00
    87  8.6000000000000D-01  6.1299956229555D-02  1.4472360042178D+00
    88  8.7000000000000D-01  4.3013859839059D-02  1.4084131775426D+00
    89  8.8000000000000D-01  2.6141422731406D-02  1.3666387095083D+00
    90  8.9000000000000D-01  1.0661068557959D-02  1.3221456954923D+00
    91  9.0000000000000D-01 -3.4539494715057D-03  1.2751808683734D+00
    92  9.1000000000000D-01 -1.6235223045045D-02  1.2260028519361D+00
    93  9.2000000000000D-01 -2.7718842019409D-02  1.1748802853361D+00
    94  9.3000000000000D-01 -3.7945029407449D-02  1.1220898375620D+00
    95  9.4000000000000D-01 -4.6957761151081D-02  1.0679141329781D+00
    96  9.5000000000000D-01 -5.4804373888101D-02  1.0126396109608D+00
    97  9.6000000000000D-01 -6.1535164030520D-02  9.5655434432202D-01
    98  9.7000000000000D-01 -6.7202981548659D-02  8.9994584257117D-01
    99  9.8000000000000D-01 -7.1862821900639D-02  8.4309886715408D-01
   100  9.9000000000000D-01 -7.5571419555649D-02  7.8629328651585D-01
   101  1.0000000000000D+00 -7.8386846534300D-02  7.2980199919192D-01
   102  1.0100000000000D+00 -8.0368119328740D-02  6.7388895311851D-01
   103  1.0200000000000D+00 -8.1574817470316D-02  6.1880728895847D-01
   104  1.0300000000000D+00 -8.2066716877573D-02  5.6479763441061D-01
   105  1.0400000000000D+00 -8.1903440962198D-02  5.1208657536253D-01
   106  1.0500000000000D+00 -8.1144132268498D-02  4.6088532815335D-01
   107  1.0600000000000D+00 -7.9847147195739D-02  4.1138863528367D-01
   108  1.0700000000000D+00 -7.8069776103992D-02  3.6377390469719D-01
   109  1.0800000000000D+00 -7.5867990814724D-02  3.1820061007690D-01
   110  1.0900000000000D+00 -7.3296221230127D-02  2.7480996685752D-01
   111  1.1000000000000D+00 -7.0407162475079D-02  2.3372489553952D-01
   112  1.1100000000000D+00 -6.7251613612916D-02  1.9505028036168D-01
   113  1.1200000000000D+00 -6.3878348661323D-02  1.5887352809032D-01
   114  1.1300000000000D+00 -6.0334020249313D-02  1.2526542770569D-01
   115  1.1400000000000D+00 -5.6663095974595D-02  9.4281308843243D-02
   116  1.1500000000000D+00 -5.2907827062907D-02  6.5962492015877D-02
   117  1.1600000000000D+00 -4.9108248651587D-02  4.0338020658992D-02
   118  1.1700000000000D+00 -4.5302212233990D-02  1.7426690890544D-02
   119  1.1800000000000D+00 -4.1525441692264D-02 -2.7607764326974D-03
   120  1.1900000000000D+00 -3.7811625469435D-02 -2.0219163646594D-02
   121  1.2000000000000D+00 -3.4192447917347D-02 -3.4947600986212D-02
   122  1.2100000000000D+00 -3.0698149585528D-02 -4.6938764987059D-02
   123  1.2200000000000D+00 -2.7356229231204D-02 -5.6203244294275D-02
   124  1.2300000000000D+00 -2.4189640654788D-02 -6.2802547609194D-02
   125  1.2400000000000D+00 -2.1215367973958D-02 -6.6872898912545D-02
   126  1.2500000000000D+00 -1.8444927489432D-02 -6.8613372687422D-02
   127  1.2600000000000D+00 -1.5885257095170D-02 -6.8267497249863D-02
   128  1.2700000000000D+00 -1.3539344413426D-02 -6.6111100181718D-02
   129  1.2800000000000D+00 -1.1406906875054D-02 -6.2439821811401D-02
   130  1.2900000000000D+00 -9.4850069141794D-03 -5.7558440353128D-02
   131  1.3000000000000D+00 -7.7685965773848D-03 -5.1771918078539D-02
   132  1.3100000000000D+00 -6.2509873691212D-03 -4.5378079100839D-02
   133  1.3200000000000D+00 -4.9242512904762D-03 -3.8661717462229D-02
   134  1.3300000000000D+00 -3.7795556018551D-03 -3.1889984306604D-02
   135  1.3400000000000D+00 -2.8074405608586D-03 -2.5308821523371D-02
   136  1.3500000000000D+00 -1.9980458965905D-03 -1.9140302947902D-02
   137  1.3600000000000D+00 -1.3412936876896D-03 -1.3580716018835D-02
   138  1.3700000000000D+00 -8.2727768806542D-04 -8.8025082996252D-03
   139  1.3800000000000D+00 -4.4421262935602D-04 -4.9255912423309D-03
   140  1.3900000000000D+00 -1.8460707627828D-04 -2.0949806676005D-03
   141  1.4000000000000D+00 -4.3582561368934D-05 -4.5445592767231D-04
   142  1.4100000000000D+00  6.5004649926925D-06  1.5291821357501D-04
   143  1.4200000000000D+00  7.1718664492398D-06  1.1921223317884D-04
   144  1.4300000000000D+00 -1.9208399037212D-06 -2.9915007351785D-05
   145  1.4400000000000D+00 -1.4257483571256D-06 -2.1840661558458D-05
   146  1.4500000000000D+00  5.0307812264382D-07  7.7479836249650D-06
   147  1.4600000000000D+00  7.8774345266865D-08  1.1997325946908D-06
   148  1.4700000000000D+00 -1.5711388436210D-08 -4.0123192488125D-07
   149  1.4800000000000D+00  0.0000000000000D+00  0.0000000000000D+00
   150  1.4900000000000D+00  0.0000000000000D+00  0.0000000000000D+00
   151  1.5000000000000D+00  0.0000000000000D+00  0.0000000000000D+00
   152  1.5100000000000D+00  0.0000000000000D+00  0.0000000000000D+00
   153  1.5200000000000D+00  0.0000000000000D+00  0.0000000000000D+00
   154  1.5300000000000D+00  0.0000000000000D+00  0.0000000000000D+00
   155  1.5400000000000D+00  0.0000000000000D+00  0.0000000000000D+00
   156  1.5500000000000D+00  0.0000000000000D+00  0.0000000000000D+00
   157  1.5600000000000D+00  0.0000000000000D+00  0.0000000000000D+00
   158  1.5700000000000D+00  0.0000000000000D+00  0.0000000000000D+00
   159  1.5800000000000D+00  0.0000000000000D+00  0.0000000000000D+00
   160  1.5900000000000D+00  0.0000000000000D+00  0.0000000000000D+00
   161  1.6000000000000D+00  0.0000000000000D+00  0.0000000000000D+00
   162  1.6100000000000D+00  0.0000000000000D+00  0.0000000000000D+00
   163  1.6200000000000D+00  0.0000000000000D+00  0.0000000000000D+00
   164  1.6300000000000D+00  0.0000000000000D+00  0.0000000000000D+00
   165  1.6400000000000D+00  0.0000000000000D+00  0.0000000000000D+00
   166  1.6500000000000D+00  0.0000000000000D+00  0.0000000000000D+00
   167  1.6600000000000D+00  0.0000000000000D+00  0.0000000000000D+00
   168  1.6700000000000D+00  0.0000000000000D+00  0.0000000000000D+00
   169  1.6800000000000D+00  0.0000000000000D+00  0.0000000000000D+00
   170  1.6900000000000D+00  0.0000000000000D+00  0.0000000000000D+00
   171  1.7000000000000D+00  0.0000000000000D+00  0.0000000000000D+00
   172  1.7100000000000D+00  0.0000000000000D+00  0.0000000000000D+00
   173  1.7200000000000D+00  0.0000000000000D+00  0.0000000000000D+00
   174  1.7300000000000D+00  0.0000000000000D+00  0.0000000000000D+00
   175  1.7400000000000D+00  0.0000000000000D+00  0.0000000000000D+00
   176  1.7500000000000D+00  0.0000000000000D+00  0.0000000000000D+00
   177  1.7600000000000D+00  0.0000000000000D+00  0.0000000000000D+00
   178  1.7700000000000D+00  0.0000000000000D+00  0.0000000000000D+00
   179  1.7800000000000D+00  0.0000000000000D+00  0.0000000000000D+00
   180  1.7900000000000D+00  0.0000000000000D+00  0.0000000000000D+00
   181  1.8000000000000D+00  0.0000000000000D+00  0.0000000000000D+00
   182  1.8100000000000D+00  0.0000000000000D+00  0.0000000000000D+00
   183  1.8200000000000D+00  0.0000000000000D+00  0.0000000000000D+00
   184  1.8300000000000D+00  0.0000000000000D+00  0.0000000000000D+00
   185  1.8400000000000D+00  0.0000000000000D+00  0.0000000000000D+00
   186  1.8500000000000D+00  0.0000000000000D+00  0.0000000000000D+00
   187  1.8600000000000D+00  0.0000000000000D+00  0.0000000000000D+00
   188  1.8700000000000D+00  0.0000000000000D+00  0.0000000000000D+00
   189  1.8800000000000D+00  0.0000000000000D+00  0.0000000000000D+00
   190  1.8900000000000D+00  0.0000000000000D+00  0.0000000000000D+00
   191  1.9000000000000D+00  0.0000000000000D+00  0.0000000000000D+00
   192  1.9100000000000D+00  0.0000000000000D+00  0.0000000000000D+00
   193  1.9200000000000D+00  0.0000000000000D+00  0.0000000000000D+00
   194  1.9300000000000D+00  0.0000000000000D+00  0.0000000000000D+00
   195  1.9400000000000D+00  0.0000000000000D+00  0.0000000000000D+00
   196  1.9500000000000D+00  0.0000000000000D+00  0.0000000000000D+00
   197  1.9600000000000D+00  0.0000000000000D+00  0.0000000000000D+00
   198  1.9700000000000D+00  0.0000000000000D+00  0.0000000000000D+00
   199  1.9800000000000D+00  0.0000000000000D+00  0.0000000000000D+00
   200  1.9900000000000D+00  0.0000000000000D+00  0.0000000000000D+00
   201  2.0000000000000D+00  0.0000000000000D+00  0.0000000000000D+00
   202  2.0100000000000D+00  0.0000000000000D+00  0.0000000000000D+00
   203  2.0200000000000D+00  0.0000000000000D+00  0.0000000000000D+00
   204  2.0300000000000D+00  0.0000000000000D+00  0.0000000000000D+00
   205  2.0400000000000D+00  0.0000000000000D+00  0.0000000000000D+00
   206  2.0500000000000D+00  0.0000000000000D+00  0.0000000000000D+00
   207  2.0600000000000D+00  0.0000000000000D+00  0.0000000000000D+00
   208  2.0700000000000D+00  0.0000000000000D+00  0.0000000000000D+00
   209  2.0800000000000D+00  0.0000000000000D+00  0.0000000000000D+00
   210  2.0900000000000D+00  0.0000000000000D+00  0.0000000000000D+00
   211  2.1000000000000D+00  0.0000000000000D+00  0.0000000000000D+00
   212  2.1100000000000D+00  0.0000000000000D+00  0.0000000000000D+00
   213  2.1200000000000D+00  0.0000000000000D+00  0.0000000000000D+00
   214  2.1300000000000D+00  0.0000000000000D+00  0.0000000000000D+00
   215  2.1400000000000D+00  0.0000000000000D+00  0.0000000000000D+00
   216  2.1500000000000D+00  0.0000000000000D+00  0.0000000000000D+00
   217  2.1600000000000D+00  0.0000000000000D+00  0.0000000000000D+00
   218  2.1700000000000D+00  0.0000000000000D+00  0.0000000000000D+00
   219  2.1800000000000D+00  0.0000000000000D+00  0.0000000000000D+00
   220  2.1900000000000D+00  0.0000000000000D+00  0.0000000000000D+00
   221  2.2000000000000D+00  0.0000000000000D+00  0.0000000000000D+00
   222  2.2100000000000D+00  0.0000000000000D+00  0.0000000000000D+00
   223  2.2200000000000D+00  0.0000000000000D+00  0.0000000000000D+00
   224  2.2300000000000D+00  0.0000000000000D+00  0.0000000000000D+00
   225  2.2400000000000D+00  0.0000000000000D+00  0.0000000000000D+00
   226  2.2500000000000D+00  0.0000000000000D+00  0.0000000000000D+00
   227  2.2600000000000D+00  0.0000000000000D+00  0.0000000000000D+00
   228  2.2700000000000D+00  0.0000000000000D+00  0.0000000000000D+00
   229  2.2800000000000D+00  0.0000000000000D+00  0.0000000000000D+00
   230  2.2900000000000D+00  0.0000000000000D+00  0.0000000000000D+00
   231  2.3000000000000D+00  0.0000000000000D+00  0.0000000000000D+00
   232  2.3100000000000D+00  0.0000000000000D+00  0.0000000000000D+00
   233  2.3200000000000D+00  0.0000000000000D+00  0.0000000000000D+00
   234  2.3300000000000D+00  0.0000000000000D+00  0.0000000000000D+00
   235  2.3400000000000D+00  0.0000000000000D+00  0.0000000000000D+00
   236  2.3500000000000D+00  0.0000000000000D+00  0.0000000000000D+00
   237  2.3600000000000D+00  0.0000000000000D+00  0.0000000000000D+00
   238  2.3700000000000D+00  0.0000000000000D+00  0.0000000000000D+00
   239  2.3800000000000D+00  0.0000000000000D+00  0.0000000000000D+00
   240  2.3900000000000D+00  0.0000000000000D+00  0.0000000000000D+00
   241  2.4000000000000D+00  0.0000000000000D+00  0.0000000000000D+00
   242  2.4100000000000D+00  0.0000000000000D+00  0.0000000000000D+00
   243  2.4200000000000D+00  0.0000000000000D+00  0.0000000000000D+00
   244  2.4300000000000D+00  0.0000000000000D+00  0.0000000000000D+00
   245  2.4400000000000D+00  0.0000000000000D+00  0.0000000000000D+00
   246  2.4500000000000D+00  0.0000000000000D+00  0.0000000000000D+00
   247  2.4600000000000D+00  0.0000000000000D+00  0.0000000000000D+00
   248  2.4700000000000D+00  0.0000000000000D+00  0.0000000000000D+00
   249  2.4800000000000D+00  0.0000000000000D+00  0.0000000000000D+00
   250  2.4900000000000D+00  0.0000000000000D+00  0.0000000000000D+00
   251  2.5000000000000D+00  0.0000000000000D+00  0.0000000000000D+00
   252  2.5100000000000D+00  0.0000000000000D+00  0.0000000000000D+00
   253  2.5200000000000D+00  0.0000000000000D+00  0.0000000000000D+00
   254  2.5300000000000D+00  0.0000000000000D+00  0.0000000000000D+00
   255  2.5400000000000D+00  0.0000000000000D+00  0.0000000000000D+00
   256  2.5500000000000D+00  0.0000000000000D+00  0.0000000000000D+00
   257  2.5600000000000D+00  0.0000000000000D+00  0.0000000000000D+00
   258  2.5700000000000D+00  0.0000000000000D+00  0.0000000000000D+00
   259  2.5800000000000D+00  0.0000000000000D+00  0.0000000000000D+00
   260  2.5900000000000D+00  0.0000000000000D+00  0.0000000000000D+00
   261  2.6000000000000D+00  0.0000000000000D+00  0.0000000000000D+00
   262  2.6100000000000D+00  0.0000000000000D+00  0.0000000000000D+00
   263  2.6200000000000D+00  0.0000000000000D+00  0.0000000000000D+00
   264  2.6300000000000D+00  0.0000000000000D+00  0.0000000000000D+00
   265  2.6400000000000D+00  0.0000000000000D+00  0.0000000000000D+00
   266  2.6500000000000D+00  0.0000000000000D+00  0.0000000000000D+00
   267  2.6600000000000D+00  0.0000000000000D+00  0.0000000000000D+00
   268  2.6700000000000D+00  0.0000000000000D+00  0.0000000000000D+00
   269  2.6800000000000D+00  0.0000000000000D+00  0.0000000000000D+00
   270  2.6900000000000D+00  0.0000000000000D+00  0.0000000000000D+00
   271  2.7000000000000D+00  0.0000000000000D+00  0.0000000000000D+00
   272  2.7100000000000D+00  0.0000000000000D+00  0.0000000000000D+00
   273  2.7200000000000D+00  0.0000000000000D+00  0.0000000000000D+00
   274  2.7300000000000D+00  0.0000000000000D+00  0.0000000000000D+00
   275  2.7400000000000D+00  0.0000000000000D+00  0.0000000000000D+00
   276  2.7500000000000D+00  0.0000000000000D+00  0.0000000000000D+00
   277  2.7600000000000D+00  0.0000000000000D+00  0.0000000000000D+00
   278  2.7700000000000D+00  0.0000000000000D+00  0.0000000000000D+00
   279  2.7800000000000D+00  0.0000000000000D+00  0.0000000000000D+00
   280  2.7900000000000D+00  0.0000000000000D+00  0.0000000000000D+00
   281  2.8000000000000D+00  0.0000000000000D+00  0.0000000000000D+00
   282  2.8100000000000D+00  0.0000000000000D+00  0.0000000000000D+00
   283  2.8200000000000D+00  0.0000000000000D+00  0.0000000000000D+00
   284  2.8300000000000D+00  0.0000000000000D+00  0.0000000000000D+00
   285  2.8400000000000D+00  0.0000000000000D+00  0.0000000000000D+00
   286  2.8500000000000D+00  0.0000000000000D+00  0.0000000000000D+00
   287  2.8600000000000D+00  0.0000000000000D+00  0.0000000000000D+00
   288  2.8700000000000D+00  0.0000000000000D+00  0.0000000000000D+00
   289  2.8800000000000D+00  0.0000000000000D+00  0.0000000000000D+00
   290  2.8900000000000D+00  0.0000000000000D+00  0.0000000000000D+00
   291  2.9000000000000D+00  0.0000000000000D+00  0.0000000000000D+00
   292  2.9100000000000D+00  0.0000000000000D+00  0.0000000000000D+00
   293  2.9200000000000D+00  0.0000000000000D+00  0.0000000000000D+00
   294  2.9300000000000D+00  0.0000000000000D+00  0.0000000000000D+00
   295  2.9400000000000D+00  0.0000000000000D+00  0.0000000000000D+00
   296  2.9500000000000D+00  0.0000000000000D+00  0.0000000000000D+00
   297  2.9600000000000D+00  0.0000000000000D+00  0.0000000000000D+00
   298  2.9700000000000D+00  0.0000000000000D+00  0.0000000000000D+00
   299  2.9800000000000D+00  0.0000000000000D+00  0.0000000000000D+00
   300  2.9900000000000D+00  0.0000000000000D+00  0.0000000000000D+00
   301  3.0000000000000D+00  0.0000000000000D+00  0.0000000000000D+00
   302  3.0100000000000D+00  0.0000000000000D+00  0.0000000000000D+00
   303  3.0200000000000D+00  0.0000000000000D+00  0.0000000000000D+00
   304  3.0300000000000D+00  0.0000000000000D+00  0.0000000000000D+00
   305  3.0400000000000D+00  0.0000000000000D+00  0.0000000000000D+00
   306  3.0500000000000D+00  0.0000000000000D+00  0.0000000000000D+00
   307  3.0600000000000D+00  0.0000000000000D+00  0.0000000000000D+00
   308  3.0700000000000D+00  0.0000000000000D+00  0.0000000000000D+00
   309  3.0800000000000D+00  0.0000000000000D+00  0.0000000000000D+00
   310  3.0900000000000D+00  0.0000000000000D+00  0.0000000000000D+00
   311  3.1000000000000D+00  0.0000000000000D+00  0.0000000000000D+00
   312  3.1100000000000D+00  0.0000000000000D+00  0.0000000000000D+00
   313  3.1200000000000D+00  0.0000000000000D+00  0.0000000000000D+00
   314  3.1300000000000D+00  0.0000000000000D+00  0.0000000000000D+00
   315  3.1400000000000D+00  0.0000000000000D+00  0.0000000000000D+00
   316  3.1500000000000D+00  0.0000000000000D+00  0.0000000000000D+00
   317  3.1600000000000D+00  0.0000000000000D+00  0.0000000000000D+00
   318  3.1700000000000D+00  0.0000000000000D+00  0.0000000000000D+00
   319  3.1800000000000D+00  0.0000000000000D+00  0.0000000000000D+00
   320  3.1900000000000D+00  0.0000000000000D+00  0.0000000000000D+00
   321  3.2000000000000D+00  0.0000000000000D+00  0.0000000000000D+00
   322  3.2100000000000D+00  0.0000000000000D+00  0.0000000000000D+00
   323  3.2200000000000D+00  0.0000000000000D+00  0.0000000000000D+00
   324  3.2300000000000D+00  0.0000000000000D+00  0.0000000000000D+00
   325  3.2400000000000D+00  0.0000000000000D+00  0.0000000000000D+00
   326  3.2500000000000D+00  0.0000000000000D+00  0.0000000000000D+00
   327  3.2600000000000D+00  0.0000000000000D+00  0.0000000000000D+00
   328  3.2700000000000D+00  0.0000000000000D+00  0.0000000000000D+00
   329  3.2800000000000D+00  0.0000000000000D+00  0.0000000000000D+00
   330  3.2900000000000D+00  0.0000000000000D+00  0.0000000000000D+00
   331  3.3000000000000D+00  0.0000000000000D+00  0.0000000000000D+00
   332  3.3100000000000D+00  0.0000000000000D+00  0.0000000000000D+00
   333  3.3200000000000D+00  0.0000000000000D+00  0.0000000000000D+00
   334  3.3300000000000D+00  0.0000000000000D+00  0.0000000000000D+00
   335  3.3400000000000D+00  0.0000000000000D+00  0.0000000000000D+00
   336  3.3500000000000D+00  0.0000000000000D+00  0.0000000000000D+00
   337  3.3600000000000D+00  0.0000000000000D+00  0.0000000000000D+00
   338  3.3700000000000D+00  0.0000000000000D+00  0.0000000000000D+00
   339  3.3800000000000D+00  0.0000000000000D+00  0.0000000000000D+00
   340  3.3900000000000D+00  0.0000000000000D+00  0.0000000000000D+00
   341  3.4000000000000D+00  0.0000000000000D+00  0.0000000000000D+00
   342  3.4100000000000D+00  0.0000000000000D+00  0.0000000000000D+00
   343  3.4200000000000D+00  0.0000000000000D+00  0.0000000000000D+00
   344  3.4300000000000D+00  0.0000000000000D+00  0.0000000000000D+00
   345  3.4400000000000D+00  0.0000000000000D+00  0.0000000000000D+00
   346  3.4500000000000D+00  0.0000000000000D+00  0.0000000000000D+00
   347  3.4600000000000D+00  0.0000000000000D+00  0.0000000000000D+00
   348  3.4700000000000D+00  0.0000000000000D+00  0.0000000000000D+00
   349  3.4800000000000D+00  0.0000000000000D+00  0.0000000000000D+00
   350  3.4900000000000D+00  0.0000000000000D+00  0.0000000000000D+00
   351  3.5000000000000D+00  0.0000000000000D+00  0.0000000000000D+00
   352  3.5100000000000D+00  0.0000000000000D+00  0.0000000000000D+00
   353  3.5200000000000D+00  0.0000000000000D+00  0.0000000000000D+00
   354  3.5300000000000D+00  0.0000000000000D+00  0.0000000000000D+00
   355  3.5400000000000D+00  0.0000000000000D+00  0.0000000000000D+00
   356  3.5500000000000D+00  0.0000000000000D+00  0.0000000000000D+00
   357  3.5600000000000D+00  0.0000000000000D+00  0.0000000000000D+00
   358  3.5700000000000D+00  0.0000000000000D+00  0.0000000000000D+00
   359  3.5800000000000D+00  0.0000000000000D+00  0.0000000000000D+00
   360  3.5900000000000D+00  0.0000000000000D+00  0.0000000000000D+00
   361  3.6000000000000D+00  0.0000000000000D+00  0.0000000000000D+00
   362  3.6100000000000D+00  0.0000000000000D+00  0.0000000000000D+00
   363  3.6200000000000D+00  0.0000000000000D+00  0.0000000000000D+00
   364  3.6300000000000D+00  0.0000000000000D+00  0.0000000000000D+00
   365  3.6400000000000D+00  0.0000000000000D+00  0.0000000000000D+00
   366  3.6500000000000D+00  0.0000000000000D+00  0.0000000000000D+00
   367  3.6600000000000D+00  0.0000000000000D+00  0.0000000000000D+00
   368  3.6700000000000D+00  0.0000000000000D+00  0.0000000000000D+00
   369  3.6800000000000D+00  0.0000000000000D+00  0.0000000000000D+00
   370  3.6900000000000D+00  0.0000000000000D+00  0.0000000000000D+00
   371  3.7000000000000D+00  0.0000000000000D+00  0.0000000000000D+00
   372  3.7100000000000D+00  0.0000000000000D+00  0.0000000000000D+00
   373  3.7200000000000D+00  0.0000000000000D+00  0.0000000000000D+00
   374  3.7300000000000D+00  0.0000000000000D+00  0.0000000000000D+00
   375  3.7400000000000D+00  0.0000000000000D+00  0.0000000000000D+00
   376  3.7500000000000D+00  0.0000000000000D+00  0.0000000000000D+00
   377  3.7600000000000D+00  0.0000000000000D+00  0.0000000000000D+00
   378  3.7700000000000D+00  0.0000000000000D+00  0.0000000000000D+00
   379  3.7800000000000D+00  0.0000000000000D+00  0.0000000000000D+00
   380  3.7900000000000D+00  0.0000000000000D+00  0.0000000000000D+00
   381  3.8000000000000D+00  0.0000000000000D+00  0.0000000000000D+00
   382  3.8100000000000D+00  0.0000000000000D+00  0.0000000000000D+00
   383  3.8200000000000D+00  0.0000000000000D+00  0.0000000000000D+00
   384  3.8300000000000D+00  0.0000000000000D+00  0.0000000000000D+00
   385  3.8400000000000D+00  0.0000000000000D+00  0.0000000000000D+00
   386  3.8500000000000D+00  0.0000000000000D+00  0.0000000000000D+00
   387  3.8600000000000D+00  0.0000000000000D+00  0.0000000000000D+00
   388  3.8700000000000D+00  0.0000000000000D+00  0.0000000000000D+00
   389  3.8800000000000D+00  0.0000000000000D+00  0.0000000000000D+00
   390  3.8900000000000D+00  0.0000000000000D+00  0.0000000000000D+00
   391  3.9000000000000D+00  0.0000000000000D+00  0.0000000000000D+00
   392  3.9100000000000D+00  0.0000000000000D+00  0.0000000000000D+00
   393  3.9200000000000D+00  0.0000000000000D+00  0.0000000000000D+00
   394  3.9300000000000D+00  0.0000000000000D+00  0.0000000000000D+00
   395  3.9400000000000D+00  0.0000000000000D+00  0.0000000000000D+00
   396  3.9500000000000D+00  0.0000000000000D+00  0.0000000000000D+00
   397  3.9600000000000D+00  0.0000000000000D+00  0.0000000000000D+00
   398  3.9700000000000D+00  0.0000000000000D+00  0.0000000000000D+00
   399  3.9800000000000D+00  0.0000000000000D+00  0.0000000000000D+00
   400  3.9900000000000D+00  0.0000000000000D+00  0.0000000000000D+00
   401  4.0000000000000D+00  0.0000000000000D+00  0.0000000000000D+00
   402  4.0100000000000D+00  0.0000000000000D+00  0.0000000000000D+00
   403  4.0200000000000D+00  0.0000000000000D+00  0.0000000000000D+00
   404  4.0300000000000D+00  0.0000000000000D+00  0.0000000000000D+00
   405  4.0400000000000D+00  0.0000000000000D+00  0.0000000000000D+00
   406  4.0500000000000D+00  0.0000000000000D+00  0.0000000000000D+00
   407  4.0600000000000D+00  0.0000000000000D+00  0.0000000000000D+00
   408  4.0700000000000D+00  0.0000000000000D+00  0.0000000000000D+00
   409  4.0800000000000D+00  0.0000000000000D+00  0.0000000000000D+00
   410  4.0900000000000D+00  0.0000000000000D+00  0.0000000000000D+00
   411  4.1000000000000D+00  0.0000000000000D+00  0.0000000000000D+00
   412  4.1100000000000D+00  0.0000000000000D+00  0.0000000000000D+00
   413  4.1200000000000D+00  0.0000000000000D+00  0.0000000000000D+00
   414  4.1300000000000D+00  0.0000000000000D+00  0.0000000000000D+00
   415  4.1400000000000D+00  0.0000000000000D+00  0.0000000000000D+00
   416  4.1500000000000D+00  0.0000000000000D+00  0.0000000000000D+00
   417  4.1600000000000D+00  0.0000000000000D+00  0.0000000000000D+00
   418  4.1700000000000D+00  0.0000000000000D+00  0.0000000000000D+00
   419  4.1800000000000D+00  0.0000000000000D+00  0.0000000000000D+00
   420  4.1900000000000D+00  0.0000000000000D+00  0.0000000000000D+00
   421  4.2000000000000D+00  0.0000000000000D+00  0.0000000000000D+00
   422  4.2100000000000D+00  0.0000000000000D+00  0.0000000000000D+00