P     ONCVPSP-3.3.0  r_core=   1.46089   1.55067   1.70594
     15.0000      5.0000      220117    zatom,zion,pspd
     8      11   2     4   600     0    pspcod,pspxc,lmax,lloc,mmax,r2well
  5.99000000  0.00000000  0.00000000    rchrg fchrg qchrg
     2     2     2     0     0    nproj
     1     1           extension_switch
   0                         6.5987217487873D+00  1.0523413847200D+00
     1  0.0000000000000D+00 -1.7843342081658D-08  4.3303862828914D-08
     2  1.0000000000000D-02  5.6646201281982D-02 -5.2493920758652D-02
     3  2.0000000000000D-02  1.1274394998127D-01 -1.0371210662234D-01
     4  3.0000000000000D-02  1.6775599342471D-01 -1.5240594711791D-01
     5  4.0000000000000D-02  2.2116724732628D-01 -1.9738051936608D-01
     6  5.0000000000000D-02  2.7249530609300D-01 -2.3752004014230D-01
     7  6.0000000000000D-02  3.2130027751052D-01 -2.7181167951377D-01
     8  7.0000000000000D-02  3.6719373806350D-01 -2.9936724199880D-01
     9  8.0000000000000D-02  4.0984662298957D-01 -3.1944226449869D-01
    10  9.0000000000000D-02  4.4899588679153D-01 -3.3145213273506D-01
    11  1.0000000000000D-01  4.8444979490934D-01 -3.3498487853764D-01
    12  1.1000000000000D-01  5.1609173508144D-01 -3.2981038785549D-01
    13  1.2000000000000D-01  5.4388246704677D-01 -3.1588582245602D-01
    14  1.3000000000000D-01  5.6786076105238D-01 -2.9335713546587D-01
    15  1.4000000000000D-01  5.8814240849799D-01 -2.6255664064813D-01
    16  1.5000000000000D-01  6.0491762130979D-01 -2.2399667599850D-01
    17  1.6000000000000D-01  6.1844686962226D-01 -1.7835948225856D-01
    18  1.7000000000000D-01  6.2905523939590D-01 -1.2648349467370D-01
    19  1.8000000000000D-01  6.3712542206376D-01 -6.9346320200356D-02
    20  1.9000000000000D-01  6.4308947656562D-01 -8.0447408958867D-03
    21  2.0000000000000D-01  6.4741952962257D-01  5.6227853983125D-02
    22  2.1000000000000D-01  6.5061760230828D-01  1.2220615085222D-01
    23  2.2000000000000D-01  6.5320476943193D-01  1.8857920861764D-01
    24  2.3000000000000D-01  6.5570987258273D-01  2.5401783373768D-01
    25  2.4000000000000D-01  6.5865801759614D-01  3.1720247388257D-01
    26  2.5000000000000D-01  6.6255909247847D-01  3.7685105786179D-01
    27  2.6000000000000D-01  6.6789654234826D-01  4.3174620834222D-01
    28  2.7000000000000D-01  6.7511663369534D-01  4.8076126433497D-01
    29  2.8000000000000D-01  6.8461843129235D-01  5.2288457230898D-01
    30  2.9000000000000D-01  6.9674469758229D-01  5.5724153769599D-01
    31  3.0000000000000D-01  7.1177390656532D-01  5.8311397185983D-01
    32  3.1000000000000D-01  7.2991354245985D-01  5.9995632248310D-01
    33  3.2000000000000D-01  7.5129482813812D-01  6.0740843674850D-01
    34  3.3000000000000D-01  7.7596900002792D-01  6.0530457546504D-01
    35  3.4000000000000D-01  8.0390521538553D-01  5.9367847105522D-01
    36  3.5000000000000D-01  8.3499014518459D-01  5.7276430161186D-01
    37  3.6000000000000D-01  8.6902927198009D-01  5.4299353547583D-01
    38  3.7000000000000D-01  9.0574987766571D-01  5.0498768434896D-01
    39  3.8000000000000D-01  9.4480567173448D-01  4.5954708617053D-01
    40  3.9000000000000D-01  9.8578297716132D-01  4.0763592018787D-01
    41  4.0000000000000D-01  1.0282083590272D+00  3.5036373420164D-01
    42  4.1000000000000D-01  1.0715575511407D+00  2.8896383630561D-01
    43  4.2000000000000D-01  1.1152655087911D+00  2.2476896909158D-01
    44  4.3000000000000D-01  1.1587373919464D+00  1.5918474191158D-01
    45  4.4000000000000D-01  1.2013602631696D+00  9.3661345189346D-02
    46  4.5000000000000D-01  1.2425152687029D+00  2.9664108940929D-02
    47  4.6000000000000D-01  1.2815900598791D+00 -3.1356505218664D-02
    48  4.7000000000000D-01  1.3179912055312D+00 -8.7994873834359D-02
    49  4.8000000000000D-01  1.3511563445197D+00 -1.3891953493613D-01
    50  4.9000000000000D-01  1.3805658309576D+00 -1.8290126543425D-01
    51  5.0000000000000D-01  1.4057536331310D+00 -2.1883933383467D-01
    52  5.1000000000000D-01  1.4263172603552D+00 -2.4578538198050D-01
    53  5.2000000000000D-01  1.4419265098416D+00 -2.6296443311469D-01
    54  5.3000000000000D-01  1.4523308477293D+00 -2.6979257744305D-01
    55  5.4000000000000D-01  1.4573652643744D+00 -2.6589094959720D-01
    56  5.5000000000000D-01  1.4569544733003D+00 -2.5109568379094D-01
    57  5.6000000000000D-01  1.4511153552357D+00 -2.2546361040010D-01
    58  5.7000000000000D-01  1.4399575830165D+00 -1.8927354124331D-01
    59  5.8000000000000D-01  1.4236823987898D+00 -1.4302307753323D-01
    60  5.9000000000000D-01  1.4025795516509D+00 -8.7420963623732D-02
    61  6.0000000000000D-01  1.3770224403945D+00 -2.3375098417609D-02
    62  6.1000000000000D-01  1.3474615422589D+00  4.8023595843863D-02
    63  6.2000000000000D-01  1.3144162430614D+00  1.2552116398234D-01
    64  6.3000000000000D-01  1.2784652169660D+00  2.0772410445810D-01
    65  6.4000000000000D-01  1.2402355339654D+00  2.9312591685664D-01
    66  6.5000000000000D-01  1.2003906998633D+00  3.8013621045422D-01
    67  6.6000000000000D-01  1.1596178563950D+00  4.6711181885878D-01
    68  6.7000000000000D-01  1.1186143875635D+00  5.5238932132294D-01
    69  6.8000000000000D-01  1.0780741920764D+00  6.3431833821111D-01
    70  6.9000000000000D-01  1.0386738905442D+00  7.1129494724796D-01
    71  7.0000000000000D-01  1.0010592396159D+00  7.8179455913533D-01
    72  7.1000000000000D-01  9.6583202346753D-01  8.4440359591145D-01
    73  7.2000000000000D-01  9.3353768596227D-01  8.9784933320285D-01
    74  7.3000000000000D-01  9.0465395444703D-01  9.4102729806308D-01
    75  7.4000000000000D-01  8.7958068883543D-01  9.7302565669891D-01
    76  7.5000000000000D-01  8.5863116758093D-01  9.9314608046408D-01
    77  7.6000000000000D-01  8.4202499572782D-01  1.0009206431859D+00
    78  7.7000000000000D-01  8.2988279019846D-01  9.9612437632081D-01
    79  7.8000000000000D-01  8.2222276386376D-01  9.7878319053928D-01
    80  7.9000000000000D-01  8.1895929399076D-01  9.4917696008224D-01
    81  8.0000000000000D-01  8.1990352263108D-01  9.0783765897661D-01
    82  8.1000000000000D-01  8.2476599729437D-01  8.5554253376747D-01
    83  8.2000000000000D-01  8.3316132057836D-01  7.9330239403535D-01
    84  8.3000000000000D-01  8.4461473806282D-01  7.2234519775693D-01
    85  8.4000000000000D-01  8.5857055548933D-01  6.4409520166265D-01
    86  8.5000000000000D-01  8.7440223979336D-01  5.6014803531644D-01
    87  8.6000000000000D-01  8.9142402464871D-01  4.7224213994111D-01
    88  8.7000000000000D-01  9.0890381050301D-01  3.8222708739562D-01
    89  8.8000000000000D-01  9.2607712224157D-01  2.9202935968219D-01
    90  8.9000000000000D-01  9.4216186516124D-01  2.0361622359886D-01
    91  9.0000000000000D-01  9.5637360232925D-01  1.1895837753270D-01
    92  9.1000000000000D-01  9.6794106401611D-01  3.9992077012099D-02
    93  9.2000000000000D-01  9.7612159299946D-01 -3.1418538154999D-02
    94  9.3000000000000D-01  9.8021622830616D-01 -9.3518189940295D-02
    95  9.4000000000000D-01  9.7958413445166D-01 -1.4469556769840D-01
    96  9.5000000000000D-01  9.7365609335320D-01 -1.8351610493705D-01
    97  9.6000000000000D-01  9.6194679199045D-01 -2.0875177823631D-01
    98  9.7000000000000D-01  9.4406565940126D-01 -2.1940732988287D-01
    99  9.8000000000000D-01  9.1972603267746D-01 -2.1474237992271D-01
   100  9.9000000000000D-01  8.8875246183521D-01 -1.9428896750206D-01
   101  1.0000000000000D+00  8.5108599732539D-01 -1.5786414446737D-01
   102  1.0100000000000D+00  8.0678734130430D-01 -1.0557733569622D-01
   103  1.0200000000000D+00  7.5603778339343D-01 -3.7832277572245D-02
   104  1.0300000000000D+00  6.9913788414539D-01  4.4676550078448D-02
   105  1.0400000000000D+00  6.3650391001448D-01  1.4097298408872D-01
   106  1.0500000000000D+00  5.6866206819423D-01  2.4981360674404D-01
   107  1.0600000000000D+00  4.9624063132095D-01  3.6970731830165D-01
   108  1.0700000000000D+00  4.1996008208729D-01  4.9893973059140D-01
   109  1.0800000000000D+00  3.4062144737196D-01  6.3560196263072D-01
   110  1.0900000000000D+00  2.5909302517692D-01  7.7762333715698D-01
   111  1.1000000000000D+00  1.7629574049321D-01  9.2280739709858D-01
   112  1.1100000000000D+00  9.3187394498111D-02  1.0688705923128D+00
   113  1.1200000000000D+00  1.0746092628031D-02  1.2134829356612D+00
   114  1.1300000000000D+00 -7.0046845199852D-02  1.3543098846793D+00
   115  1.1400000000000D+00 -1.4822417753153D-01  1.4890546775899D+00
   116  1.1500000000000D+00 -2.2284991540118D-01  1.6155003349832D+00
   117  1.1600000000000D+00 -2.9303605767189D-01  1.7315505445804D+00
   118  1.1700000000000D+00 -3.5795857531750D-01  1.8352686651411D+00
   119  1.1800000000000D+00 -4.1687233876699D-01  1.9249141018635D+00
   120  1.1900000000000D+00 -4.6912470688947D-01  1.9989753660848D+00
   121  1.2000000000000D+00 -5.1416752038966D-01  2.0561991916295D+00
   122  1.2100000000000D+00 -5.5156726251718D-01  2.0956151297617D+00
   123  1.2200000000000D+00 -5.8101318913411D-01  2.1165551409403D+00
   124  1.2300000000000D+00 -6.0232327133306D-01  2.1186678025547D+00
   125  1.2400000000000D+00 -6.1544782777746D-01  2.1019268351887D+00
   126  1.2500000000000D+00 -6.2047075781308D-01  2.0666337331119D+00
   127  1.2600000000000D+00 -6.1760835462028D-01  2.0134144518854D+00
   128  1.2700000000000D+00 -6.0720570726286D-01  1.9432101784067D+00
   129  1.2800000000000D+00 -5.8973072906365D-01  1.8572622787953D+00
   130  1.2900000000000D+00 -5.6576593542982D-01  1.7570917292882D+00
   131  1.3000000000000D+00 -5.3599810484209D-01  1.6444733611696D+00
   132  1.3100000000000D+00 -5.0120598961246D-01  1.5214053313361D+00
   133  1.3200000000000D+00 -4.6224632125997D-01  1.3900744213956D+00
   134  1.3300000000000D+00 -4.2003834282414D-01  1.2528177374934D+00
   135  1.3400000000000D+00 -3.7554714802866D-01  1.1120814995043D+00
   136  1.3500000000000D+00 -3.2976614281833D-01  9.7037769496764D-01
   137  1.3600000000000D+00 -2.8369892944722D-01  8.3023933573334D-01
   138  1.3700000000000D+00 -2.3834096146659D-01  6.9417517283151D-01
   139  1.3800000000000D+00 -1.9466128841094D-01  5.6462465232671D-01
   140  1.3900000000000D+00 -1.5358474123125D-01  4.4391397428666D-01
   141  1.4000000000000D+00 -1.1597487394381D-01  3.3421402884013D-01
   142  1.4100000000000D+00 -8.2619667510663D-02  2.3750582495687D-01
   143  1.4200000000000D+00 -5.4229320380603D-02  1.5557996658171D-01
   144  1.4300000000000D+00 -3.1263484772030D-02  8.9547765044810D-02
   145  1.4400000000000D+00 -1.4376168478040D-02  4.1117429939847D-02
   146  1.4500000000000D+00 -4.3448366403383D-03  1.2393193632669D-02
   147  1.4600000000000D+00 -1.7836070935976D-04  4.7876178193793D-04
   148  1.4700000000000D+00  4.5812260047564D-04 -1.3234427597314D-03
   149  1.4800000000000D+00 -5.4038852836472D-05  1.5570368659124D-04
   150  1.4900000000000D+00 -1.2801399410339D-04  3.6833059076723D-04
   151  1.5000000000000D+00  1.9015356346570D-05 -5.4923449696504D-05
   152  1.5100000000000D+00  1.7441425354150D-05 -5.0344053489463D-05
   153  1.5200000000000D+00  4.1652817880271D-08 -4.2215041173209D-08
   154  1.5300000000000D+00  1.6892279899177D-08 -1.7120289280378D-08
   155  1.5400000000000D+00  0.0000000000000D+00  0.0000000000000D+00
   156  1.5500000000000D+00  0.0000000000000D+00  0.0000000000000D+00
   157  1.5600000000000D+00  0.0000000000000D+00  0.0000000000000D+00
   158  1.5700000000000D+00  0.0000000000000D+00  0.0000000000000D+00
   159  1.5800000000000D+00  0.0000000000000D+00  0.0000000000000D+00
   160  1.5900000000000D+00  0.0000000000000D+00  0.0000000000000D+00
   161  1.6000000000000D+00  0.0000000000000D+00  0.0000000000000D+00
   162  1.6100000000000D+00  0.0000000000000D+00  0.0000000000000D+00
   163  1.6200000000000D+00  0.0000000000000D+00  0.0000000000000D+00
   164  1.6300000000000D+00  0.0000000000000D+00  0.0000000000000D+00
   165  1.6400000000000D+00  0.0000000000000D+00  0.0000000000000D+00
   166  1.6500000000000D+00  0.0000000000000D+00  0.0000000000000D+00
   167  1.6600000000000D+00  0.0000000000000D+00  0.0000000000000D+00
   168  1.6700000000000D+00  0.0000000000000D+00  0.0000000000000D+00
   169  1.6800000000000D+00  0.0000000000000D+00  0.0000000000000D+00
   170  1.6900000000000D+00  0.0000000000000D+00  0.0000000000000D+00
   171  1.7000000000000D+00  0.0000000000000D+00  0.0000000000000D+00
   172  1.7100000000000D+00  0.0000000000000D+00  0.0000000000000D+00
   173  1.7200000000000D+00  0.0000000000000D+00  0.0000000000000D+00
   174  1.7300000000000D+00  0.0000000000000D+00  0.0000000000000D+00
   175  1.7400000000000D+00  0.0000000000000D+00  0.0000000000000D+00
   176  1.7500000000000D+00  0.0000000000000D+00  0.0000000000000D+00
   177  1.7600000000000D+00  0.0000000000000D+00  0.0000000000000D+00
   178  1.7700000000000D+00  0.0000000000000D+00  0.0000000000000D+00
   179  1.7800000000000D+00  0.0000000000000D+00  0.0000000000000D+00
   180  1.7900000000000D+00  0.0000000000000D+00  0.0000000000000D+00
   181  1.8000000000000D+00  0.0000000000000D+00  0.0000000000000D+00
   182  1.8100000000000D+00  0.0000000000000D+00  0.0000000000000D+00
   183  1.8200000000000D+00  0.0000000000000D+00  0.0000000000000D+00
   184  1.8300000000000D+00  0.0000000000000D+00  0.0000000000000D+00
   185  1.8400000000000D+00  0.0000000000000D+00  0.0000000000000D+00
   186  1.8500000000000D+00  0.0000000000000D+00  0.0000000000000D+00
   187  1.8600000000000D+00  0.0000000000000D+00  0.0000000000000D+00
   188  1.8700000000000D+00  0.0000000000000D+00  0.0000000000000D+00
   189  1.8800000000000D+00  0.0000000000000D+00  0.0000000000000D+00
   190  1.8900000000000D+00  0.0000000000000D+00  0.0000000000000D+00
   191  1.9000000000000D+00  0.0000000000000D+00  0.0000000000000D+00
   192  1.9100000000000D+00  0.0000000000000D+00  0.0000000000000D+00
   193  1.9200000000000D+00  0.0000000000000D+00  0.0000000000000D+00
   194  1.9300000000000D+00  0.0000000000000D+00  0.0000000000000D+00
   195  1.9400000000000D+00  0.0000000000000D+00  0.0000000000000D+00
   196  1.9500000000000D+00  0.0000000000000D+00  0.0000000000000D+00
   197  1.9600000000000D+00  0.0000000000000D+00  0.0000000000000D+00
   198  1.9700000000000D+00  0.0000000000000D+00  0.0000000000000D+00
   199  1.9800000000000D+00  0.0000000000000D+00  0.0000000000000D+00
   200  1.9900000000000D+00  0.0000000000000D+00  0.0000000000000D+00
   201  2.0000000000000D+00  0.0000000000000D+00  0.0000000000000D+00
   202  2.0100000000000D+00  0.0000000000000D+00  0.0000000000000D+00
   203  2.0200000000000D+00  0.0000000000000D+00  0.0000000000000D+00
   204  2.0300000000000D+00  0.0000000000000D+00  0.0000000000000D+00
   205  2.0400000000000D+00  0.0000000000000D+00  0.0000000000000D+00
   206  2.0500000000000D+00  0.0000000000000D+00  0.0000000000000D+00
   207  2.0600000000000D+00  0.0000000000000D+00  0.0000000000000D+00
   208  2.0700000000000D+00  0.0000000000000D+00  0.0000000000000D+00
   209  2.0800000000000D+00  0.0000000000000D+00  0.0000000000000D+00
   210  2.0900000000000D+00  0.0000000000000D+00  0.0000000000000D+00
   211  2.1000000000000D+00  0.0000000000000D+00  0.0000000000000D+00
   212  2.1100000000000D+00  0.0000000000000D+00  0.0000000000000D+00
   213  2.1200000000000D+00  0.0000000000000D+00  0.0000000000000D+00
   214  2.1300000000000D+00  0.0000000000000D+00  0.0000000000000D+00
   215  2.1400000000000D+00  0.0000000000000D+00  0.0000000000000D+00
   216  2.1500000000000D+00  0.0000000000000D+00  0.0000000000000D+00
   217  2.1600000000000D+00  0.0000000000000D+00  0.0000000000000D+00
   218  2.1700000000000D+00  0.0000000000000D+00  0.0000000000000D+00
   219  2.1800000000000D+00  0.0000000000000D+00  0.0000000000000D+00
   220  2.1900000000000D+00  0.0000000000000D+00  0.0000000000000D+00
   221  2.2000000000000D+00  0.0000000000000D+00  0.0000000000000D+00
   222  2.2100000000000D+00  0.0000000000000D+00  0.0000000000000D+00
   223  2.2200000000000D+00  0.0000000000000D+00  0.0000000000000D+00
   224  2.2300000000000D+00  0.0000000000000D+00  0.0000000000000D+00
   225  2.2400000000000D+00  0.0000000000000D+00  0.0000000000000D+00
   226  2.2500000000000D+00  0.0000000000000D+00  0.0000000000000D+00
   227  2.2600000000000D+00  0.0000000000000D+00  0.0000000000000D+00
   228  2.2700000000000D+00  0.0000000000000D+00  0.0000000000000D+00
   229  2.2800000000000D+00  0.0000000000000D+00  0.0000000000000D+00
   230  2.2900000000000D+00  0.0000000000000D+00  0.0000000000000D+00
   231  2.3000000000000D+00  0.0000000000000D+00  0.0000000000000D+00
   232  2.3100000000000D+00  0.0000000000000D+00  0.0000000000000D+00
   233  2.3200000000000D+00  0.0000000000000D+00  0.0000000000000D+00
   234  2.3300000000000D+00  0.0000000000000D+00  0.0000000000000D+00
   235  2.3400000000000D+00  0.0000000000000D+00  0.0000000000000D+00
   236  2.3500000000000D+00  0.0000000000000D+00  0.0000000000000D+00
   237  2.3600000000000D+00  0.0000000000000D+00  0.0000000000000D+00
   238  2.3700000000000D+00  0.0000000000000D+00  0.0000000000000D+00
   239  2.3800000000000D+00  0.0000000000000D+00  0.0000000000000D+00
   240  2.3900000000000D+00  0.0000000000000D+00  0.0000000000000D+00
   241  2.4000000000000D+00  0.0000000000000D+00  0.0000000000000D+00
   242  2.4100000000000D+00  0.0000000000000D+00  0.0000000000000D+00
   243  2.4200000000000D+00  0.0000000000000D+00  0.0000000000000D+00
   244  2.4300000000000D+00  0.0000000000000D+00  0.0000000000000D+00
   245  2.4400000000000D+00  0.0000000000000D+00  0.0000000000000D+00
   246  2.4500000000000D+00  0.0000000000000D+00  0.0000000000000D+00
   247  2.4600000000000D+00  0.0000000000000D+00  0.0000000000000D+00
   248  2.4700000000000D+00  0.0000000000000D+00  0.0000000000000D+00
   249  2.4800000000000D+00  0.0000000000000D+00  0.0000000000000D+00
   250  2.4900000000000D+00  0.0000000000000D+00  0.0000000000000D+00
   251  2.5000000000000D+00  0.0000000000000D+00  0.0000000000000D+00
   252  2.5100000000000D+00  0.0000000000000D+00  0.0000000000000D+00
   253  2.5200000000000D+00  0.0000000000000D+00  0.0000000000000D+00
   254  2.5300000000000D+00  0.0000000000000D+00  0.0000000000000D+00
   255  2.5400000000000D+00  0.0000000000000D+00  0.0000000000000D+00
   256  2.5500000000000D+00  0.0000000000000D+00  0.0000000000000D+00
   257  2.5600000000000D+00  0.0000000000000D+00  0.0000000000000D+00
   258  2.5700000000000D+00  0.0000000000000D+00  0.0000000000000D+00
   259  2.5800000000000D+00  0.0000000000000D+00  0.0000000000000D+00
   260  2.5900000000000D+00  0.0000000000000D+00  0.0000000000000D+00
   261  2.6000000000000D+00  0.0000000000000D+00  0.0000000000000D+00
   262  2.6100000000000D+00  0.0000000000000D+00  0.0000000000000D+00
   263  2.6200000000000D+00  0.0000000000000D+00  0.0000000000000D+00
   264  2.6300000000000D+00  0.0000000000000D+00  0.0000000000000D+00
   265  2.6400000000000D+00  0.0000000000000D+00  0.0000000000000D+00
   266  2.6500000000000D+00  0.0000000000000D+00  0.0000000000000D+00
   267  2.6600000000000D+00  0.0000000000000D+00  0.0000000000000D+00
   268  2.6700000000000D+00  0.0000000000000D+00  0.0000000000000D+00
   269  2.6800000000000D+00  0.0000000000000D+00  0.0000000000000D+00
   270  2.6900000000000D+00  0.0000000000000D+00  0.0000000000000D+00
   271  2.7000000000000D+00  0.0000000000000D+00  0.0000000000000D+00
   272  2.7100000000000D+00  0.0000000000000D+00  0.0000000000000D+00
   273  2.7200000000000D+00  0.0000000000000D+00  0.0000000000000D+00
   274  2.7300000000000D+00  0.0000000000000D+00  0.0000000000000D+00
   275  2.7400000000000D+00  0.0000000000000D+00  0.0000000000000D+00
   276  2.7500000000000D+00  0.0000000000000D+00  0.0000000000000D+00
   277  2.7600000000000D+00  0.0000000000000D+00  0.0000000000000D+00
   278  2.7700000000000D+00  0.0000000000000D+00  0.0000000000000D+00
   279  2.7800000000000D+00  0.0000000000000D+00  0.0000000000000D+00
   280  2.7900000000000D+00  0.0000000000000D+00  0.0000000000000D+00
   281  2.8000000000000D+00  0.0000000000000D+00  0.0000000000000D+00
   282  2.8100000000000D+00  0.0000000000000D+00  0.0000000000000D+00
   283  2.8200000000000D+00  0.0000000000000D+00  0.0000000000000D+00
   284  2.8300000000000D+00  0.0000000000000D+00  0.0000000000000D+00
   285  2.8400000000000D+00  0.0000000000000D+00  0.0000000000000D+00
   286  2.8500000000000D+00  0.0000000000000D+00  0.0000000000000D+00
   287  2.8600000000000D+00  0.0000000000000D+00  0.0000000000000D+00
   288  2.8700000000000D+00  0.0000000000000D+00  0.0000000000000D+00
   289  2.8800000000000D+00  0.0000000000000D+00  0.0000000000000D+00
   290  2.8900000000000D+00  0.0000000000000D+00  0.0000000000000D+00
   291  2.9000000000000D+00  0.0000000000000D+00  0.0000000000000D+00
   292  2.9100000000000D+00  0.0000000000000D+00  0.0000000000000D+00
   293  2.9200000000000D+00  0.0000000000000D+00  0.0000000000000D+00
   294  2.9300000000000D+00  0.0000000000000D+00  0.0000000000000D+00
   295  2.9400000000000D+00  0.0000000000000D+00  0.0000000000000D+00
   296  2.9500000000000D+00  0.0000000000000D+00  0.0000000000000D+00
   297  2.9600000000000D+00  0.0000000000000D+00  0.0000000000000D+00
   298  2.9700000000000D+00  0.0000000000000D+00  0.0000000000000D+00
   299  2.9800000000000D+00  0.0000000000000D+00  0.0000000000000D+00
   300  2.9900000000000D+00  0.0000000000000D+00  0.0000000000000D+00
   301  3.0000000000000D+00  0.0000000000000D+00  0.0000000000000D+00
   302  3.0100000000000D+00  0.0000000000000D+00  0.0000000000000D+00
   303  3.0200000000000D+00  0.0000000000000D+00  0.0000000000000D+00
   304  3.0300000000000D+00  0.0000000000000D+00  0.0000000000000D+00
   305  3.0400000000000D+00  0.0000000000000D+00  0.0000000000000D+00
   306  3.0500000000000D+00  0.0000000000000D+00  0.0000000000000D+00
   307  3.0600000000000D+00  0.0000000000000D+00  0.0000000000000D+00
   308  3.0700000000000D+00  0.0000000000000D+00  0.0000000000000D+00
   309  3.0800000000000D+00  0.0000000000000D+00  0.0000000000000D+00
   310  3.0900000000000D+00  0.0000000000000D+00  0.0000000000000D+00
   311  3.1000000000000D+00  0.0000000000000D+00  0.0000000000000D+00
   312  3.1100000000000D+00  0.0000000000000D+00  0.0000000000000D+00
   313  3.1200000000000D+00  0.0000000000000D+00  0.0000000000000D+00
   314  3.1300000000000D+00  0.0000000000000D+00  0.0000000000000D+00
   315  3.1400000000000D+00  0.0000000000000D+00  0.0000000000000D+00
   316  3.1500000000000D+00  0.0000000000000D+00  0.0000000000000D+00
   317  3.1600000000000D+00  0.0000000000000D+00  0.0000000000000D+00
   318  3.1700000000000D+00  0.0000000000000D+00  0.0000000000000D+00
   319  3.1800000000000D+00  0.0000000000000D+00  0.0000000000000D+00
   320  3.1900000000000D+00  0.0000000000000D+00  0.0000000000000D+00
   321  3.2000000000000D+00  0.0000000000000D+00  0.0000000000000D+00
   322  3.2100000000000D+00  0.0000000000000D+00  0.0000000000000D+00
   323  3.2200000000000D+00  0.0000000000000D+00  0.0000000000000D+00
   324  3.2300000000000D+00  0.0000000000000D+00  0.0000000000000D+00
   325  3.2400000000000D+00  0.0000000000000D+00  0.0000000000000D+00
   326  3.2500000000000D+00  0.0000000000000D+00  0.0000000000000D+00
   327  3.2600000000000D+00  0.0000000000000D+00  0.0000000000000D+00
   328  3.2700000000000D+00  0.0000000000000D+00  0.0000000000000D+00
   329  3.2800000000000D+00  0.0000000000000D+00  0.0000000000000D+00
   330  3.2900000000000D+00  0.0000000000000D+00  0.0000000000000D+00
   331  3.3000000000000D+00  0.0000000000000D+00  0.0000000000000D+00
   332  3.3100000000000D+00  0.0000000000000D+00  0.0000000000000D+00
   333  3.3200000000000D+00  0.0000000000000D+00  0.0000000000000D+00
   334  3.3300000000000D+00  0.0000000000000D+00  0.0000000000000D+00
   335  3.3400000000000D+00  0.0000000000000D+00  0.0000000000000D+00
   336  3.3500000000000D+00  0.0000000000000D+00  0.0000000000000D+00
   337  3.3600000000000D+00  0.0000000000000D+00  0.0000000000000D+00
   338  3.3700000000000D+00  0.0000000000000D+00  0.0000000000000D+00
   339  3.3800000000000D+00  0.0000000000000D+00  0.0000000000000D+00
   340  3.3900000000000D+00  0.0000000000000D+00  0.0000000000000D+00
   341  3.4000000000000D+00  0.0000000000000D+00  0.0000000000000D+00
   342  3.4100000000000D+00  0.0000000000000D+00  0.0000000000000D+00
   343  3.4200000000000D+00  0.0000000000000D+00  0.0000000000000D+00
   344  3.4300000000000D+00  0.0000000000000D+00  0.0000000000000D+00
   345  3.4400000000000D+00  0.0000000000000D+00  0.0000000000000D+00
   346  3.4500000000000D+00  0.0000000000000D+00  0.0000000000000D+00
   347  3.4600000000000D+00  0.0000000000000D+00  0.0000000000000D+00
   348  3.4700000000000D+00  0.0000000000000D+00  0.0000000000000D+00
   349  3.4800000000000D+00  0.0000000000000D+00  0.0000000000000D+00
   350  3.4900000000000D+00  0.0000000000000D+00  0.0000000000000D+00
   351  3.5000000000000D+00  0.0000000000000D+00  0.0000000000000D+00
   352  3.5100000000000D+00  0.0000000000000D+00  0.0000000000000D+00
   353  3.5200000000000D+00  0.0000000000000D+00  0.0000000000000D+00
   354  3.5300000000000D+00  0.0000000000000D+00  0.0000000000000D+00
   355  3.5400000000000D+00  0.0000000000000D+00  0.0000000000000D+00
   356  3.5500000000000D+00  0.0000000000000D+00  0.0000000000000D+00
   357  3.5600000000000D+00  0.0000000000000D+00  0.0000000000000D+00
   358  3.5700000000000D+00  0.0000000000000D+00  0.0000000000000D+00
   359  3.5800000000000D+00  0.0000000000000D+00  0.0000000000000D+00
   360  3.5900000000000D+00  0.0000000000000D+00  0.0000000000000D+00
   361  3.6000000000000D+00  0.0000000000000D+00  0.0000000000000D+00
   362  3.6100000000000D+00  0.0000000000000D+00  0.0000000000000D+00
   363  3.6200000000000D+00  0.0000000000000D+00  0.0000000000000D+00
   364  3.6300000000000D+00  0.0000000000000D+00  0.0000000000000D+00
   365  3.6400000000000D+00  0.0000000000000D+00  0.0000000000000D+00
   366  3.6500000000000D+00  0.0000000000000D+00  0.0000000000000D+00
   367  3.6600000000000D+00  0.0000000000000D+00  0.0000000000000D+00
   368  3.6700000000000D+00  0.0000000000000D+00  0.0000000000000D+00
   369  3.6800000000000D+00  0.0000000000000D+00  0.0000000000000D+00
   370  3.6900000000000D+00  0.0000000000000D+00  0.0000000000000D+00
   371  3.7000000000000D+00  0.0000000000000D+00  0.0000000000000D+00
   372  3.7100000000000D+00  0.0000000000000D+00  0.0000000000000D+00
   373  3.7200000000000D+00  0.0000000000000D+00  0.0000000000000D+00
   374  3.7300000000000D+00  0.0000000000000D+00  0.0000000000000D+00
   375  3.7400000000000D+00  0.0000000000000D+00  0.0000000000000D+00
   376  3.7500000000000D+00  0.0000000000000D+00  0.0000000000000D+00
   377  3.7600000000000D+00  0.0000000000000D+00  0.0000000000000D+00
   378  3.7700000000000D+00  0.0000000000000D+00  0.0000000000000D+00
   379  3.7800000000000D+00  0.0000000000000D+00  0.0000000000000D+00
   380  3.7900000000000D+00  0.0000000000000D+00  0.0000000000000D+00
   381  3.8000000000000D+00  0.0000000000000D+00  0.0000000000000D+00
   382  3.8100000000000D+00  0.0000000000000D+00  0.0000000000000D+00
   383  3.8200000000000D+00  0.0000000000000D+00  0.0000000000000D+00
   384  3.8300000000000D+00  0.0000000000000D+00  0.0000000000000D+00
   385  3.8400000000000D+00  0.0000000000000D+00  0.0000000000000D+00
   386  3.8500000000000D+00  0.0000000000000D+00  0.0000000000000D+00
   387  3.8600000000000D+00  0.0000000000000D+00  0.0000000000000D+00
   388  3.8700000000000D+00  0.0000000000000D+00  0.0000000000000D+00
   389  3.8800000000000D+00  0.0000000000000D+00  0.0000000000000D+00
   390  3.8900000000000D+00  0.0000000000000D+00  0.0000000000000D+00
   391  3.9000000000000D+00  0.0000000000000D+00  0.0000000000000D+00
   392  3.9100000000000D+00  0.0000000000000D+00  0.0000000000000D+00
   393  3.9200000000000D+00  0.0000000000000D+00  0.0000000000000D+00
   394  3.9300000000000D+00  0.0000000000000D+00  0.0000000000000D+00
   395  3.9400000000000D+00  0.0000000000000D+00  0.0000000000000D+00
   396  3.9500000000000D+00  0.0000000000000D+00  0.0000000000000D+00
   397  3.9600000000000D+00  0.0000000000000D+00  0.0000000000000D+00
   398  3.9700000000000D+00  0.0000000000000D+00  0.0000000000000D+00
   399  3.9800000000000D+00  0.0000000000000D+00  0.0000000000000D+00
   400  3.9900000000000D+00  0.0000000000000D+00  0.0000000000000D+00
   401  4.0000000000000D+00  0.0000000000000D+00  0.0000000000000D+00
   402  4.0100000000000D+00  0.0000000000000D+00  0.0000000000000D+00
   403  4.0200000000000D+00  0.0000000000000D+00  0.0000000000000D+00
   404  4.0300000000000D+00  0.0000000000000D+00  0.0000000000000D+00
   405  4.0400000000000D+00  0.0000000000000D+00  0.0000000000000D+00
   406  4.0500000000000D+00  0.0000000000000D+00  0.0000000000000D+00
   407  4.0600000000000D+00  0.0000000000000D+00  0.0000000000000D+00
   408  4.0700000000000D+00  0.0000000000000D+00  0.0000000000000D+00
   409  4.0800000000000D+00  0.0000000000000D+00  0.0000000000000D+00
   410  4.0900000000000D+00  0.0000000000000D+00  0.0000000000000D+00
   411  4.1000000000000D+00  0.0000000000000D+00  0.0000000000000D+00
   412  4.1100000000000D+00  0.0000000000000D+00  0.0000000000000D+00
   413  4.1200000000000D+00  0.0000000000000D+00  0.0000000000000D+00
   414  4.1300000000000D+00  0.0000000000000D+00  0.0000000000000D+00
   415  4.1400000000000D+00  0.0000000000000D+00  0.0000000000000D+00
   416  4.1500000000000D+00  0.0000000000000D+00  0.0000000000000D+00
   417  4.1600000000000D+00  0.0000000000000D+00  0.0000000000000D+00
   418  4.1700000000000D+00  0.0000000000000D+00  0.0000000000000D+00
   419  4.1800000000000D+00  0.0000000000000D+00  0.0000000000000D+00
   420  4.1900000000000D+00  0.0000000000000D+00  0.0000000000000D+00
   421  4.2000000000000D+00  0.0000000000000D+00  0.0000000000000D+00
   422  4.2100000000000D+00  0.0000000000000D+00  0.0000000000000D+00