Ga    ONCVPSP-3.3.0  r_core=   1.66857   1.75011   1.90252
     31.0000     13.0000      220117    zatom,zion,pspd
     8      11   2     4   600     0    pspcod,pspxc,lmax,lloc,mmax,r2well
  5.99000000  0.00000000  0.00000000    rchrg fchrg qchrg
     2     2     2     0     0    nproj
     1     1           extension_switch
   0                         7.0297819099158D+00  1.1446754534872D+00
     1  0.0000000000000D+00  1.6598721529204D-09 -3.1245604992236D-09
     2  1.0000000000000D-02 -1.5150748526206D-03  4.6206510901582D-02
     3  2.0000000000000D-02 -2.7215143349613D-03  9.1832522308366D-02
     4  3.0000000000000D-02 -3.3143166179568D-03  1.3630430908874D-01
     5  4.0000000000000D-02 -2.9957071017488D-03  1.7906162004159D-01
     6  5.0000000000000D-02 -1.4786528232453D-03  2.1956422867371D-01
     7  6.0000000000000D-02  1.5097409963450D-03  2.5729826278912D-01
     8  7.0000000000000D-02  6.2249895833572D-03  2.9178224286413D-01
     9  8.0000000000000D-02  1.2902178082374D-02  3.2257276230674D-01
    10  9.0000000000000D-02  2.1753135483374D-02  3.4926974654245D-01
    11  1.0000000000000D-01  3.2963864220136D-02  3.7152123239131D-01
    12  1.1000000000000D-01  4.6692253916426D-02  3.8902761435490D-01
    13  1.2000000000000D-01  6.3066104711234D-02  4.0154531016386D-01
    14  1.3000000000000D-01  8.2181482274068D-02  4.0888980418504D-01
    15  1.4000000000000D-01  1.0410142306111D-01  4.1093803398752D-01
    16  1.5000000000000D-01  1.2885500459980D-01  4.0763009244839D-01
    17  1.6000000000000D-01  1.5643679166324D-01  3.9897022516654D-01
    18  1.7000000000000D-01  1.8680666514792D-01  3.8502711056885D-01
    19  1.8000000000000D-01  2.1989003634056D-01  3.6593341785808D-01
    20  1.9000000000000D-01  2.5557844509764D-01  3.4188464578136D-01
    21  2.0000000000000D-01  2.9373053630617D-01  3.1313725301217D-01
    22  2.1000000000000D-01  3.3417340489259D-01  2.8000609865209D-01
    23  2.2000000000000D-01  3.7670429564040D-01  2.4286121889020D-01
    24  2.3000000000000D-01  4.2109264020967D-01  2.0212397312770D-01
    25  2.4000000000000D-01  4.6708241006386D-01  1.5826259980490D-01
    26  2.5000000000000D-01  5.1439476054084D-01  1.1178722868318D-01
    27  2.6000000000000D-01  5.6273093809336D-01  6.3244402365453D-02
    28  2.7000000000000D-01  6.1177541980323D-01  1.3211165320293D-02
    29  2.8000000000000D-01  6.6119925167594D-01 -3.7711216453363D-02
    30  2.9000000000000D-01  7.1066354997586D-01 -8.8903837774049D-02
    31  3.0000000000000D-01  7.5982312799161D-01 -1.3973696779158D-01
    32  3.1000000000000D-01  8.0833020914782D-01 -1.8957702106817D-01
    33  3.2000000000000D-01  8.5583818631970D-01 -2.3779361065706D-01
    34  3.3000000000000D-01  9.0200538657328D-01 -2.8376660644002D-01
    35  3.4000000000000D-01  9.4649880035502D-01 -3.2689312163625D-01
    36  3.5000000000000D-01  9.8899773439276D-01 -3.6659435086957D-01
    37  3.6000000000000D-01  1.0291973482456D+00 -4.0232218447924D-01
    38  3.7000000000000D-01  1.0668120355465D+00 -4.3356552586948D-01
    39  3.8000000000000D-01  1.1015786125077D+00 -4.5985624159446D-01
    40  3.9000000000000D-01  1.1332592781934D+00 -4.8077467754278D-01
    41  4.0000000000000D-01  1.1616443133836D+00 -4.9595467897936D-01
    42  4.1000000000000D-01  1.1865544875366D+00 -5.0508805728322D-01
    43  4.2000000000000D-01  1.2078431463783D+00 -5.0792845193104D-01
    44  4.3000000000000D-01  1.2253979559753D+00 -5.0429454256471D-01
    45  4.4000000000000D-01  1.2391422827433D+00 -4.9407257277866D-01
    46  4.5000000000000D-01  1.2490361926787D+00 -4.7721815450152D-01
    47  4.6000000000000D-01  1.2550770571277D+00 -4.5375732944945D-01
    48  4.7000000000000D-01  1.2572997565891D+00 -4.2378687201922D-01
    49  4.8000000000000D-01  1.2557764783361D+00 -3.8747382608032D-01
    50  4.9000000000000D-01  1.2506161079970D+00 -3.4505427633736D-01
    51  5.0000000000000D-01  1.2419632196058D+00 -2.9683136317480D-01
    52  5.1000000000000D-01  1.2299966729797D+00 -2.4317255808239D-01
    53  5.2000000000000D-01  1.2149278315460D+00 -1.8450622480222D-01
    54  5.3000000000000D-01  1.1969984178899D+00 -1.2131749914533D-01
    55  5.4000000000000D-01  1.1764780282805D+00 -5.4143527930013D-02
    56  5.5000000000000D-01  1.1536613312018D+00  1.6431885409977D-02
    57  5.6000000000000D-01  1.1288649784443D+00  8.9784174371149D-02
    58  5.7000000000000D-01  1.1024242605481D+00  1.6525438181547D-01
    59  5.8000000000000D-01  1.0746895412985D+00  2.4215594557437D-01
    60  5.9000000000000D-01  1.0460225085363D+00  3.1978182669252D-01
    61  6.0000000000000D-01  1.0167922807065D+00  3.9741190573600D-01
    62  6.1000000000000D-01  9.8737141033605D-01  4.7432056928751D-01
    63  6.2000000000000D-01  9.5813182695327D-01  5.4978440629171D-01
    64  6.3000000000000D-01  9.2944076284330D-01  6.2308993228266D-01
    65  6.4000000000000D-01  9.0165670545188D-01  6.9354125877310D-01
    66  6.5000000000000D-01  8.7512542020553D-01  7.6046762520486D-01
    67  6.6000000000000D-01  8.5017608699901D-01  8.2323071187143D-01
    68  6.7000000000000D-01  8.2711759261825D-01  8.8123165411398D-01
    69  6.8000000000000D-01  8.0623501993706D-01  9.3391768082630D-01
    70  6.9000000000000D-01  7.8778637283470D-01  9.8078830390758D-01
    71  7.0000000000000D-01  7.7199957347867D-01  1.0214009896816D+00
    72  7.1000000000000D-01  7.5906976589703D-01  1.0553762484660D+00
    73  7.2000000000000D-01  7.4915695668875D-01  1.0824020843109D+00
    74  7.3000000000000D-01  7.4238402026620D-01  1.1022377534741D+00
    75  7.4000000000000D-01  7.3883509228597D-01  1.1147167872805D+00
    76  7.5000000000000D-01  7.3855437090035D-01  1.1197492426324D+00
    77  7.6000000000000D-01  7.4154534120869D-01  1.1173231514836D+00
    78  7.7000000000000D-01  7.4777043384131D-01  1.1075051490027D+00
    79  7.8000000000000D-01  7.5715112403987D-01  1.0904402687861D+00
    80  7.9000000000000D-01  7.6956847290871D-01  1.0663509023474D+00
    81  8.0000000000000D-01  7.8486410779916D-01  1.0355349290062D+00
    82  8.1000000000000D-01  8.0284163407826D-01  9.9836303120113D-01
    83  8.2000000000000D-01  8.2326846587688D-01  9.5527521903684D-01
    84  8.3000000000000D-01  8.4587805886518D-01  9.0677659645435D-01
    85  8.4000000000000D-01  8.7037252371272D-01  8.5343240969649D-01
    86  8.5000000000000D-01  8.9642559470338D-01  7.9586242662998D-01
    87  8.6000000000000D-01  9.2368592403950D-01  7.3473470290119D-01
    88  8.7000000000000D-01  9.5178066872600D-01  6.7075879776094D-01
    89  8.8000000000000D-01  9.8031933361746D-01  6.0467850861585D-01
    90  8.9000000000000D-01  1.0088978312731D+00  5.3726419888315D-01
    91  9.0000000000000D-01  1.0371027167327D+00  4.6930479847657D-01
    92  9.1000000000000D-01  1.0645155532281D+00  4.0159956017995D-01
    93  9.2000000000000D-01  1.0907173632053D+00  3.3494965822459D-01
    94  9.3000000000000D-01  1.1152931178712D+00  2.7014971754074D-01
    95  9.4000000000000D-01  1.1378362178110D+00  2.0797936337497D-01
    96  9.5000000000000D-01  1.1579529170699D+00  1.4919488121037D-01
    97  9.6000000000000D-01  1.1752666434129D+00  9.4521076277637D-02
    98  9.7000000000000D-01  1.1894221683546D+00  4.4643420245935D-02
    99  9.8000000000000D-01  1.2000895818857D+00  2.0057011159286D-04
   100  9.9000000000000D-01  1.2069680286701D+00 -3.8222659225513D-02
   101  1.0000000000000D+00  1.2097891647948D+00 -7.0101791615700D-02
   102  1.0100000000000D+00  1.2083202969038D+00 -9.4978583696282D-02
   103  1.0200000000000D+00  1.2023671687849D+00 -1.1246625061973D-01
   104  1.0300000000000D+00  1.1917763639642D+00 -1.2225396441161D-01
   105  1.0400000000000D+00  1.1764372967983D+00 -1.2411057336136D-01
   106  1.0500000000000D+00  1.1562837688885D+00 -1.1788749908010D-01
   107  1.0600000000000D+00  1.1312950720253D+00 -1.0352077617088D-01
   108  1.0700000000000D+00  1.1014966236598D+00 -8.1032208529752D-02
   109  1.0800000000000D+00  1.0669601259318D+00 -5.0529625839675D-02
   110  1.0900000000000D+00  1.0278032437807D+00 -1.2206232324956D-02
   111  1.1000000000000D+00  9.8418880352007D-01  3.3660949076392D-02
   112  1.1100000000000D+00  9.3632351772573D-01  8.6713525510181D-02
   113  1.1200000000000D+00  8.8445624787462D-01  1.4651505379822D-01
   114  1.1300000000000D+00  8.2887582038274D-01  2.1255520068294D-01
   115  1.1400000000000D+00  7.6990841725059D-01  2.8425470307861D-01
   116  1.1500000000000D+00  7.0791456678452D-01  3.6097107963758D-01
   117  1.1600000000000D+00  6.4328576449989D-01  4.4200503618773D-01
   118  1.1700000000000D+00  5.7644075754177D-01  5.2660750150456D-01
   119  1.1800000000000D+00  5.0782153074113D-01  6.1398722086527D-01
   120  1.1900000000000D+00  4.3788903519530D-01  7.0331882962022D-01
   121  1.2000000000000D+00  3.6711870324167D-01  7.9375132341610D-01
   122  1.2100000000000D+00  2.9599579571906D-01  8.8441683789533D-01
   123  1.2200000000000D+00  2.2501063037082D-01  9.7443964515802D-01
   124  1.2300000000000D+00  1.5465374074344D-01  1.0629452733652D+00
   125  1.2400000000000D+00  8.5411016091423D-02  1.1490696536996D+00
   126  1.2500000000000D+00  1.7758873711007D-02  1.2319681972470D+00
   127  1.2600000000000D+00 -4.7840485949484D-02  1.3108247064446D+00
   128  1.2700000000000D+00 -1.1094369099467D-01  1.3848600256539D+00
   129  1.2800000000000D+00 -1.7113062730593D-01  1.4533403375933D+00
   130  1.2900000000000D+00 -2.2800863924836D-01  1.5155850186010D+00
   131  1.3000000000000D+00 -2.8121645589162D-01  1.5709739658353D+00
   132  1.3100000000000D+00 -3.3042780040923D-01  1.6189543164832D+00
   133  1.3200000000000D+00 -3.7535464600747D-01  1.6590464898765D+00
   134  1.3300000000000D+00 -4.1575007990997D-01  1.6908494799466D+00
   135  1.3400000000000D+00 -4.5141074559734D-01  1.7140453419848D+00
   136  1.3500000000000D+00 -4.8217883926652D-01  1.7284028286215D+00
   137  1.3600000000000D+00 -5.0794363164827D-01  1.7337801207798D+00
   138  1.3700000000000D+00 -5.2864250474966D-01  1.7301266343980D+00
   139  1.3800000000000D+00 -5.4426148863184D-01  1.7174838752319D+00
   140  1.3900000000000D+00 -5.5483528806763D-01  1.6959853230615D+00
   141  1.4000000000000D+00 -5.6044680567395D-01  1.6658553584298D+00
   142  1.4100000000000D+00 -5.6122615559699D-01  1.6274072212766D+00
   143  1.4200000000000D+00 -5.5734918388797D-01  1.5810400327134D+00
   144  1.4300000000000D+00 -5.4903550924263D-01  1.5272349064883D+00
   145  1.4400000000000D+00 -5.3654609733138D-01  1.4665501758678D+00
   146  1.4500000000000D+00 -5.2018040462064D-01  1.3996158046377D+00
   147  1.4600000000000D+00 -5.0027310759824D-01  1.3271270130450D+00
   148  1.4700000000000D+00 -4.7719046194175D-01  1.2498372037550D+00
   149  1.4800000000000D+00 -4.5132632291321D-01  1.1685502477598D+00
   150  1.4900000000000D+00 -4.2309786852375D-01  1.0841122096469D+00
   151  1.5000000000000D+00 -3.9294107415985D-01  9.9740260509341D-01
   152  1.5100000000000D+00 -3.6130597802025D-01  9.0932526586178D-01
   153  1.5200000000000D+00 -3.2865179514728D-01  8.2079892231073D-01
   154  1.5300000000000D+00 -2.9544192324640D-01  7.3274758597230D-01
   155  1.5400000000000D+00 -2.6213889816634D-01  6.4609084233537D-01
   156  1.5500000000000D+00 -2.2919934742829D-01  5.6173414613822D-01
   157  1.5600000000000D+00 -1.9706899765808D-01  4.8055922394937D-01
   158  1.5700000000000D+00 -1.6617778637760D-01  4.0341469027267D-01
   159  1.5800000000000D+00 -1.3693512482909D-01  3.3110692754100D-01
   160  1.5900000000000D+00 -1.0972538591558D-01  2.6439148470117D-01
   161  1.6000000000000D+00 -8.4903615843779D-02  2.0396479809134D-01
   162  1.6100000000000D+00 -6.2791706830634D-02  1.5045677180910D-01
   163  1.6200000000000D+00 -4.3689880932084D-02  1.0446025516983D-01
   164  1.6300000000000D+00 -2.7785252813270D-02  6.6315094745212D-02
   165  1.6400000000000D+00 -1.5258376897089D-02  3.6363868971665D-02
   166  1.6500000000000D+00 -6.5663272911110D-03  1.5625922712890D-02
   167  1.6600000000000D+00 -1.7497077891291D-03  4.1503169479215D-03
   168  1.6700000000000D+00  1.4019799932191D-04 -3.4477868216081D-04
   169  1.6800000000000D+00  3.2222619164358D-04 -7.7102455294014D-04
   170  1.6900000000000D+00 -3.2419125746733D-05  7.7504328788820D-05
   171  1.7000000000000D+00 -1.0991332049176D-04  2.6252795240362D-04
   172  1.7100000000000D+00  4.3451941770973D-06 -1.0412758979450D-05
   173  1.7200000000000D+00  2.0555311348595D-05 -4.9237633255861D-05
   174  1.7300000000000D+00 -1.0719206698775D-09  6.4959620651268D-09
   175  1.7400000000000D+00 -9.2006510247058D-09  5.5756999291550D-08
   176  1.7500000000000D+00 -1.5138132464635D-10  9.1738817051051D-10
   177  1.7600000000000D+00  0.0000000000000D+00  0.0000000000000D+00
   178  1.7700000000000D+00  0.0000000000000D+00  0.0000000000000D+00
   179  1.7800000000000D+00  0.0000000000000D+00  0.0000000000000D+00
   180  1.7900000000000D+00  0.0000000000000D+00  0.0000000000000D+00
   181  1.8000000000000D+00  0.0000000000000D+00  0.0000000000000D+00
   182  1.8100000000000D+00  0.0000000000000D+00  0.0000000000000D+00
   183  1.8200000000000D+00  0.0000000000000D+00  0.0000000000000D+00
   184  1.8300000000000D+00  0.0000000000000D+00  0.0000000000000D+00
   185  1.8400000000000D+00  0.0000000000000D+00  0.0000000000000D+00
   186  1.8500000000000D+00  0.0000000000000D+00  0.0000000000000D+00
   187  1.8600000000000D+00  0.0000000000000D+00  0.0000000000000D+00
   188  1.8700000000000D+00  0.0000000000000D+00  0.0000000000000D+00
   189  1.8800000000000D+00  0.0000000000000D+00  0.0000000000000D+00
   190  1.8900000000000D+00  0.0000000000000D+00  0.0000000000000D+00
   191  1.9000000000000D+00  0.0000000000000D+00  0.0000000000000D+00
   192  1.9100000000000D+00  0.0000000000000D+00  0.0000000000000D+00
   193  1.9200000000000D+00  0.0000000000000D+00  0.0000000000000D+00
   194  1.9300000000000D+00  0.0000000000000D+00  0.0000000000000D+00
   195  1.9400000000000D+00  0.0000000000000D+00  0.0000000000000D+00
   196  1.9500000000000D+00  0.0000000000000D+00  0.0000000000000D+00
   197  1.9600000000000D+00  0.0000000000000D+00  0.0000000000000D+00
   198  1.9700000000000D+00  0.0000000000000D+00  0.0000000000000D+00
   199  1.9800000000000D+00  0.0000000000000D+00  0.0000000000000D+00
   200  1.9900000000000D+00  0.0000000000000D+00  0.0000000000000D+00
   201  2.0000000000000D+00  0.0000000000000D+00  0.0000000000000D+00
   202  2.0100000000000D+00  0.0000000000000D+00  0.0000000000000D+00
   203  2.0200000000000D+00  0.0000000000000D+00  0.0000000000000D+00
   204  2.0300000000000D+00  0.0000000000000D+00  0.0000000000000D+00
   205  2.0400000000000D+00  0.0000000000000D+00  0.0000000000000D+00
   206  2.0500000000000D+00  0.0000000000000D+00  0.0000000000000D+00
   207  2.0600000000000D+00  0.0000000000000D+00  0.0000000000000D+00
   208  2.0700000000000D+00  0.0000000000000D+00  0.0000000000000D+00
   209  2.0800000000000D+00  0.0000000000000D+00  0.0000000000000D+00
   210  2.0900000000000D+00  0.0000000000000D+00  0.0000000000000D+00
   211  2.1000000000000D+00  0.0000000000000D+00  0.0000000000000D+00
   212  2.1100000000000D+00  0.0000000000000D+00  0.0000000000000D+00
   213  2.1200000000000D+00  0.0000000000000D+00  0.0000000000000D+00
   214  2.1300000000000D+00  0.0000000000000D+00  0.0000000000000D+00
   215  2.1400000000000D+00  0.0000000000000D+00  0.0000000000000D+00
   216  2.1500000000000D+00  0.0000000000000D+00  0.0000000000000D+00
   217  2.1600000000000D+00  0.0000000000000D+00  0.0000000000000D+00
   218  2.1700000000000D+00  0.0000000000000D+00  0.0000000000000D+00
   219  2.1800000000000D+00  0.0000000000000D+00  0.0000000000000D+00
   220  2.1900000000000D+00  0.0000000000000D+00  0.0000000000000D+00
   221  2.2000000000000D+00  0.0000000000000D+00  0.0000000000000D+00
   222  2.2100000000000D+00  0.0000000000000D+00  0.0000000000000D+00
   223  2.2200000000000D+00  0.0000000000000D+00  0.0000000000000D+00
   224  2.2300000000000D+00  0.0000000000000D+00  0.0000000000000D+00
   225  2.2400000000000D+00  0.0000000000000D+00  0.0000000000000D+00
   226  2.2500000000000D+00  0.0000000000000D+00  0.0000000000000D+00
   227  2.2600000000000D+00  0.0000000000000D+00  0.0000000000000D+00
   228  2.2700000000000D+00  0.0000000000000D+00  0.0000000000000D+00
   229  2.2800000000000D+00  0.0000000000000D+00  0.0000000000000D+00
   230  2.2900000000000D+00  0.0000000000000D+00  0.0000000000000D+00
   231  2.3000000000000D+00  0.0000000000000D+00  0.0000000000000D+00
   232  2.3100000000000D+00  0.0000000000000D+00  0.0000000000000D+00
   233  2.3200000000000D+00  0.0000000000000D+00  0.0000000000000D+00
   234  2.3300000000000D+00  0.0000000000000D+00  0.0000000000000D+00
   235  2.3400000000000D+00  0.0000000000000D+00  0.0000000000000D+00
   236  2.3500000000000D+00  0.0000000000000D+00  0.0000000000000D+00
   237  2.3600000000000D+00  0.0000000000000D+00  0.0000000000000D+00
   238  2.3700000000000D+00  0.0000000000000D+00  0.0000000000000D+00
   239  2.3800000000000D+00  0.0000000000000D+00  0.0000000000000D+00
   240  2.3900000000000D+00  0.0000000000000D+00  0.0000000000000D+00
   241  2.4000000000000D+00  0.0000000000000D+00  0.0000000000000D+00
   242  2.4100000000000D+00  0.0000000000000D+00  0.0000000000000D+00
   243  2.4200000000000D+00  0.0000000000000D+00  0.0000000000000D+00
   244  2.4300000000000D+00  0.0000000000000D+00  0.0000000000000D+00
   245  2.4400000000000D+00  0.0000000000000D+00  0.0000000000000D+00
   246  2.4500000000000D+00  0.0000000000000D+00  0.0000000000000D+00
   247  2.4600000000000D+00  0.0000000000000D+00  0.0000000000000D+00
   248  2.4700000000000D+00  0.0000000000000D+00  0.0000000000000D+00
   249  2.4800000000000D+00  0.0000000000000D+00  0.0000000000000D+00
   250  2.4900000000000D+00  0.0000000000000D+00  0.0000000000000D+00
   251  2.5000000000000D+00  0.0000000000000D+00  0.0000000000000D+00
   252  2.5100000000000D+00  0.0000000000000D+00  0.0000000000000D+00
   253  2.5200000000000D+00  0.0000000000000D+00  0.0000000000000D+00
   254  2.5300000000000D+00  0.0000000000000D+00  0.0000000000000D+00
   255  2.5400000000000D+00  0.0000000000000D+00  0.0000000000000D+00
   256  2.5500000000000D+00  0.0000000000000D+00  0.0000000000000D+00
   257  2.5600000000000D+00  0.0000000000000D+00  0.0000000000000D+00
   258  2.5700000000000D+00  0.0000000000000D+00  0.0000000000000D+00
   259  2.5800000000000D+00  0.0000000000000D+00  0.0000000000000D+00
   260  2.5900000000000D+00  0.0000000000000D+00  0.0000000000000D+00
   261  2.6000000000000D+00  0.0000000000000D+00  0.0000000000000D+00
   262  2.6100000000000D+00  0.0000000000000D+00  0.0000000000000D+00
   263  2.6200000000000D+00  0.0000000000000D+00  0.0000000000000D+00
   264  2.6300000000000D+00  0.0000000000000D+00  0.0000000000000D+00
   265  2.6400000000000D+00  0.0000000000000D+00  0.0000000000000D+00
   266  2.6500000000000D+00  0.0000000000000D+00  0.0000000000000D+00
   267  2.6600000000000D+00  0.0000000000000D+00  0.0000000000000D+00
   268  2.6700000000000D+00  0.0000000000000D+00  0.0000000000000D+00
   269  2.6800000000000D+00  0.0000000000000D+00  0.0000000000000D+00
   270  2.6900000000000D+00  0.0000000000000D+00  0.0000000000000D+00
   271  2.7000000000000D+00  0.0000000000000D+00  0.0000000000000D+00
   272  2.7100000000000D+00  0.0000000000000D+00  0.0000000000000D+00
   273  2.7200000000000D+00  0.0000000000000D+00  0.0000000000000D+00
   274  2.7300000000000D+00  0.0000000000000D+00  0.0000000000000D+00
   275  2.7400000000000D+00  0.0000000000000D+00  0.0000000000000D+00
   276  2.7500000000000D+00  0.0000000000000D+00  0.0000000000000D+00
   277  2.7600000000000D+00  0.0000000000000D+00  0.0000000000000D+00
   278  2.7700000000000D+00  0.0000000000000D+00  0.0000000000000D+00
   279  2.7800000000000D+00  0.0000000000000D+00  0.0000000000000D+00
   280  2.7900000000000D+00  0.0000000000000D+00  0.0000000000000D+00
   281  2.8000000000000D+00  0.0000000000000D+00  0.0000000000000D+00
   282  2.8100000000000D+00  0.0000000000000D+00  0.0000000000000D+00
   283  2.8200000000000D+00  0.0000000000000D+00  0.0000000000000D+00
   284  2.8300000000000D+00  0.0000000000000D+00  0.0000000000000D+00
   285  2.8400000000000D+00  0.0000000000000D+00  0.0000000000000D+00
   286  2.8500000000000D+00  0.0000000000000D+00  0.0000000000000D+00
   287  2.8600000000000D+00  0.0000000000000D+00  0.0000000000000D+00
   288  2.8700000000000D+00  0.0000000000000D+00  0.0000000000000D+00
   289  2.8800000000000D+00  0.0000000000000D+00  0.0000000000000D+00
   290  2.8900000000000D+00  0.0000000000000D+00  0.0000000000000D+00
   291  2.9000000000000D+00  0.0000000000000D+00  0.0000000000000D+00
   292  2.9100000000000D+00  0.0000000000000D+00  0.0000000000000D+00
   293  2.9200000000000D+00  0.0000000000000D+00  0.0000000000000D+00
   294  2.9300000000000D+00  0.0000000000000D+00  0.0000000000000D+00
   295  2.9400000000000D+00  0.0000000000000D+00  0.0000000000000D+00
   296  2.9500000000000D+00  0.0000000000000D+00  0.0000000000000D+00
   297  2.9600000000000D+00  0.0000000000000D+00  0.0000000000000D+00
   298  2.9700000000000D+00  0.0000000000000D+00  0.0000000000000D+00
   299  2.9800000000000D+00  0.0000000000000D+00  0.0000000000000D+00
   300  2.9900000000000D+00  0.0000000000000D+00  0.0000000000000D+00
   301  3.0000000000000D+00  0.0000000000000D+00  0.0000000000000D+00
   302  3.0100000000000D+00  0.0000000000000D+00  0.0000000000000D+00
   303  3.0200000000000D+00  0.0000000000000D+00  0.0000000000000D+00
   304  3.0300000000000D+00  0.0000000000000D+00  0.0000000000000D+00
   305  3.0400000000000D+00  0.0000000000000D+00  0.0000000000000D+00
   306  3.0500000000000D+00  0.0000000000000D+00  0.0000000000000D+00
   307  3.0600000000000D+00  0.0000000000000D+00  0.0000000000000D+00
   308  3.0700000000000D+00  0.0000000000000D+00  0.0000000000000D+00
   309  3.0800000000000D+00  0.0000000000000D+00  0.0000000000000D+00
   310  3.0900000000000D+00  0.0000000000000D+00  0.0000000000000D+00
   311  3.1000000000000D+00  0.0000000000000D+00  0.0000000000000D+00
   312  3.1100000000000D+00  0.0000000000000D+00  0.0000000000000D+00
   313  3.1200000000000D+00  0.0000000000000D+00  0.0000000000000D+00
   314  3.1300000000000D+00  0.0000000000000D+00  0.0000000000000D+00
   315  3.1400000000000D+00  0.0000000000000D+00  0.0000000000000D+00
   316  3.1500000000000D+00  0.0000000000000D+00  0.0000000000000D+00
   317  3.1600000000000D+00  0.0000000000000D+00  0.0000000000000D+00
   318  3.1700000000000D+00  0.0000000000000D+00  0.0000000000000D+00
   319  3.1800000000000D+00  0.0000000000000D+00  0.0000000000000D+00
   320  3.1900000000000D+00  0.0000000000000D+00  0.0000000000000D+00
   321  3.2000000000000D+00  0.0000000000000D+00  0.0000000000000D+00
   322  3.2100000000000D+00  0.0000000000000D+00  0.0000000000000D+00
   323  3.2200000000000D+00  0.0000000000000D+00  0.0000000000000D+00
   324  3.2300000000000D+00  0.0000000000000D+00  0.0000000000000D+00
   325  3.2400000000000D+00  0.0000000000000D+00  0.0000000000000D+00
   326  3.2500000000000D+00  0.0000000000000D+00  0.0000000000000D+00
   327  3.2600000000000D+00  0.0000000000000D+00  0.0000000000000D+00
   328  3.2700000000000D+00  0.0000000000000D+00  0.0000000000000D+00
   329  3.2800000000000D+00  0.0000000000000D+00  0.0000000000000D+00
   330  3.2900000000000D+00  0.0000000000000D+00  0.0000000000000D+00
   331  3.3000000000000D+00  0.0000000000000D+00  0.0000000000000D+00
   332  3.3100000000000D+00  0.0000000000000D+00  0.0000000000000D+00
   333  3.3200000000000D+00  0.0000000000000D+00  0.0000000000000D+00
   334  3.3300000000000D+00  0.0000000000000D+00  0.0000000000000D+00
   335  3.3400000000000D+00  0.0000000000000D+00  0.0000000000000D+00
   336  3.3500000000000D+00  0.0000000000000D+00  0.0000000000000D+00
   337  3.3600000000000D+00  0.0000000000000D+00  0.0000000000000D+00
   338  3.3700000000000D+00  0.0000000000000D+00  0.0000000000000D+00
   339  3.3800000000000D+00  0.0000000000000D+00  0.0000000000000D+00
   340  3.3900000000000D+00  0.0000000000000D+00  0.0000000000000D+00
   341  3.4000000000000D+00  0.0000000000000D+00  0.0000000000000D+00
   342  3.4100000000000D+00  0.0000000000000D+00  0.0000000000000D+00
   343  3.4200000000000D+00  0.0000000000000D+00  0.0000000000000D+00
   344  3.4300000000000D+00  0.0000000000000D+00  0.0000000000000D+00
   345  3.4400000000000D+00  0.0000000000000D+00  0.0000000000000D+00
   346  3.4500000000000D+00  0.0000000000000D+00  0.0000000000000D+00
   347  3.4600000000000D+00  0.0000000000000D+00  0.0000000000000D+00
   348  3.4700000000000D+00  0.0000000000000D+00  0.0000000000000D+00
   349  3.4800000000000D+00  0.0000000000000D+00  0.0000000000000D+00
   350  3.4900000000000D+00  0.0000000000000D+00  0.0000000000000D+00
   351  3.5000000000000D+00  0.0000000000000D+00  0.0000000000000D+00
   352  3.5100000000000D+00  0.0000000000000D+00  0.0000000000000D+00
   353  3.5200000000000D+00  0.0000000000000D+00  0.0000000000000D+00
   354  3.5300000000000D+00  0.0000000000000D+00  0.0000000000000D+00
   355  3.5400000000000D+00  0.0000000000000D+00  0.0000000000000D+00
   356  3.5500000000000D+00  0.0000000000000D+00  0.0000000000000D+00
   357  3.5600000000000D+00  0.0000000000000D+00  0.0000000000000D+00
   358  3.5700000000000D+00  0.0000000000000D+00  0.0000000000000D+00
   359  3.5800000000000D+00  0.0000000000000D+00  0.0000000000000D+00
   360  3.5900000000000D+00  0.0000000000000D+00  0.0000000000000D+00
   361  3.6000000000000D+00  0.0000000000000D+00  0.0000000000000D+00
   362  3.6100000000000D+00  0.0000000000000D+00  0.0000000000000D+00
   363  3.6200000000000D+00  0.0000000000000D+00  0.0000000000000D+00
   364  3.6300000000000D+00  0.0000000000000D+00  0.0000000000000D+00
   365  3.6400000000000D+00  0.0000000000000D+00  0.0000000000000D+00
   366  3.6500000000000D+00  0.0000000000000D+00  0.0000000000000D+00
   367  3.6600000000000D+00  0.0000000000000D+00  0.0000000000000D+00
   368  3.6700000000000D+00  0.0000000000000D+00  0.0000000000000D+00
   369  3.6800000000000D+00  0.0000000000000D+00  0.0000000000000D+00
   370  3.6900000000000D+00  0.0000000000000D+00  0.0000000000000D+00
   371  3.7000000000000D+00  0.0000000000000D+00  0.0000000000000D+00
   372  3.7100000000000D+00  0.0000000000000D+00  0.0000000000000D+00
   373  3.7200000000000D+00  0.0000000000000D+00  0.0000000000000D+00
   374  3.7300000000000D+00  0.0000000000000D+00  0.0000000000000D+00
   375  3.7400000000000D+00  0.0000000000000D+00  0.0000000000000D+00
   376  3.7500000000000D+00  0.0000000000000D+00  0.0000000000000D+00
   377  3.7600000000000D+00  0.0000000000000D+00  0.0000000000000D+00
   378  3.7700000000000D+00  0.0000000000000D+00  0.0000000000000D+00
   379  3.7800000000000D+00  0.0000000000000D+00  0.0000000000000D+00
   380  3.7900000000000D+00  0.0000000000000D+00  0.0000000000000D+00
   381  3.8000000000000D+00  0.0000000000000D+00  0.0000000000000D+00
   382  3.8100000000000D+00  0.0000000000000D+00  0.0000000000000D+00
   383  3.8200000000000D+00  0.0000000000000D+00  0.0000000000000D+00
   384  3.8300000000000D+00  0.0000000000000D+00  0.0000000000000D+00
   385  3.8400000000000D+00  0.0000000000000D+00  0.0000000000000D+00
   386  3.8500000000000D+00  0.0000000000000D+00  0.0000000000000D+00
   387  3.8600000000000D+00  0.0000000000000D+00  0.0000000000000D+00
   388  3.8700000000000D+00  0.0000000000000D+00  0.0000000000000D+00
   389  3.8800000000000D+00  0.0000000000000D+00  0.0000000000000D+00
   390  3.8900000000000D+00  0.0000000000000D+00  0.0000000000000D+00
   391  3.9000000000000D+00  0.0000000000000D+00  0.0000000000000D+00
   392  3.9100000000000D+00  0.0000000000000D+00  0.0000000000000D+00
   393  3.9200000000000D+00  0.0000000000000D+00  0.0000000000000D+00
   394  3.9300000000000D+00  0.0000000000000D+00  0.0000000000000D+00
   395  3.9400000000000D+00  0.0000000000000D+00  0.0000000000000D+00
   396  3.9500000000000D+00  0.0000000000000D+00  0.0000000000000D+00
   397  3.9600000000000D+00  0.0000000000000D+00  0.0000000000000D+00
   398  3.9700000000000D+00  0.0000000000000D+00  0.0000000000000D+00
   399  3.9800000000000D+00  0.0000000000000D+00  0.0000000000000D+00
   400  3.9900000000000D+00  0.0000000000000D+00  0.0000000000000D+00
   401  4.0000000000000D+00  0.0000000000000D+00  0.0000000000000D+00
   402  4.0100000000000D+00  0.0000000000000D+00  0.0000000000000D+00
   403  4.0200000000000D+00  0.0000000000000D+00  0.0000000000000D+00
   404  4.0300000000000D+00  0.0000000000000D+00  0.0000000000000D+00
   405  4.0400000000000D+00  0.0000000000000D+00  0.0000000000000D+00
   406  4.0500000000000D+00  0.0000000000000D+00  0.0000000000000D+00
   407  4.0600000000000D+00  0.0000000000000D+00  0.0000000000000D+00
   408  4.0700000000000D+00  0.0000000000000D+00  0.0000000000000D+00
   409  4.0800000000000D+00  0.0000000000000D+00  0.0000000000000D+00
   410  4.0900000000000D+00  0.0000000000000D+00  0.0000000000000D+00
   411  4.1000000000000D+00  0.0000000000000D+00  0.0000000000000D+00
   412  4.1100000000000D+00  0.0000000000000D+00  0.0000000000000D+00
   413  4.1200000000000D+00  0.0000000000000D+00  0.0000000000000D+00
   414  4.1300000000000D+00  0.0000000000000D+00  0.0000000000000D+00
   415  4.1400000000000D+00  0.0000000000000D+00  0.0000000000000D+00
   416  4.1500000000000D+00  0.0000000000000D+00  0.0000000000000D+00
   417  4.1600000000000D+00  0.0000000000000D+00  0.0000000000000D+00
   418  4.1700000000000D+00  0.0000000000000D+00  0.0000000000000D+00
   419  4.1800000000000D+00  0.0000000000000D+00  0.0000000000000D+00
   420  4.1900000000000D+00  0.0000000000000D+00  0.0000000000000D+00
   421  4.2000000000000D+00  0.0000000000000D+00  0.0000000000000D+00
   422  4.2100000000000D+00  0.0000000000000D+00  0.0000000000000D+00