Ga    ONCVPSP-3.3.0  r_core=   1.85767   1.81388   2.62545
     31.0000      3.0000      220117    zatom,zion,pspd
     8      11   2     4   600     0    pspcod,pspxc,lmax,lloc,mmax,r2well
  5.99000000  0.00000000  0.00000000    rchrg fchrg qchrg
     2     2     2     0     0    nproj
     1     1           extension_switch
   0                         6.4389706507179D+00  6.7745941617675D-01
     1  0.0000000000000D+00  1.5403595066132D-11 -3.1679589507227D-11
     2  1.0000000000000D-02  2.5733497672886D-02 -1.1466648818170D-02
     3  2.0000000000000D-02  5.1476557283678D-02 -2.2955094042727D-02
     4  3.0000000000000D-02  7.7238598628283D-02 -3.4486863979825D-02
     5  4.0000000000000D-02  1.0302875800697D-01 -4.6082952318860D-02
     6  5.0000000000000D-02  1.2885574844365D-01 -5.7763554775467D-02
     7  6.0000000000000D-02  1.5472772225471D-01 -6.9547810453797D-02
     8  7.0000000000000D-02  1.8065213673273D-01 -8.1453549464192D-02
     9  8.0000000000000D-02  2.0663562369475D-01 -9.3497048300710D-02
    10  9.0000000000000D-02  2.3268386362591D-01 -1.0569279444380D-01
    11  1.0000000000000D-01  2.5880146512659D-01 -1.1805326160686D-01
    12  1.1000000000000D-01  2.8499185034467D-01 -1.3058869699143D-01
    13  1.2000000000000D-01  3.1125714704542D-01 -1.4330692185487D-01
    14  1.3000000000000D-01  3.3759808793814D-01 -1.5621314662713D-01
    15  1.4000000000000D-01  3.6401391784293D-01 -1.6930980173838D-01
    16  1.5000000000000D-01  3.9050230924189D-01 -1.8259638524010D-01
    17  1.6000000000000D-01  4.1705928671739D-01 -1.9606932821560D-01
    18  1.7000000000000D-01  4.4367916073551D-01 -2.0972187888521D-01
    19  1.8000000000000D-01  4.7035447118615D-01 -2.2354400621478D-01
    20  1.9000000000000D-01  4.9707594104232D-01 -2.3752232373615D-01
    21  2.0000000000000D-01  5.2383244045029D-01 -2.5164003418279D-01
    22  2.1000000000000D-01  5.5061096150953D-01 -2.6587689543652D-01
    23  2.2000000000000D-01  5.7739660394759D-01 -2.8020920816913D-01
    24  2.3000000000000D-01  6.0417257183946D-01 -2.9460982544973D-01
    25  2.4000000000000D-01  6.3092018146499D-01 -3.0904818447245D-01
    26  2.5000000000000D-01  6.5761888034081D-01 -3.2349036044228D-01
    27  2.6000000000000D-01  6.8424627740611D-01 -3.3789914253877D-01
    28  2.7000000000000D-01  7.1077818428383D-01 -3.5223413175906D-01
    29  2.8000000000000D-01  7.3718866748182D-01 -3.6645186032361D-01
    30  2.9000000000000D-01  7.6345011134133D-01 -3.8050593221123D-01
    31  3.0000000000000D-01  7.8953329148420D-01 -3.9434718427402D-01
    32  3.1000000000000D-01  8.1540745845474D-01 -4.0792386726927D-01
    33  3.2000000000000D-01  8.4104043119849D-01 -4.2118184603484D-01
    34  3.3000000000000D-01  8.6639869996722D-01 -4.3406481792557D-01
    35  3.4000000000000D-01  8.9144753818970D-01 -4.4651454852613D-01
    36  3.5000000000000D-01  9.1615112279813D-01 -4.5847112355362D-01
    37  3.6000000000000D-01  9.4047266245492D-01 -4.6987321577015D-01
    38  3.7000000000000D-01  9.6437453308012D-01 -4.8065836563538D-01
    39  3.8000000000000D-01  9.8781842003928D-01 -4.9076327434464D-01
    40  3.9000000000000D-01  1.0107654663136D+00 -5.0012410782216D-01
    41  4.0000000000000D-01  1.0331764259399D+00 -5.0867681016684D-01
    42  4.1000000000000D-01  1.0550118219757D+00 -5.1635742498530D-01
    43  4.2000000000000D-01  1.0762321082192D+00 -5.2310242299132D-01
    44  4.3000000000000D-01  1.0967978338887D+00 -5.2884903420158D-01
    45  4.4000000000000D-01  1.1166698104453D+00 -5.3353558301896D-01
    46  4.5000000000000D-01  1.1358092797303D+00 -5.3710182446328D-01
    47  4.6000000000000D-01  1.1541780825740D+00 -5.3948927978620D-01
    48  4.7000000000000D-01  1.1717388270260D+00 -5.4064156969398D-01
    49  4.8000000000000D-01  1.1884550553561D+00 -5.4050474339797D-01
    50  4.9000000000000D-01  1.2042914089739D+00 -5.3902760171614D-01
    51  5.0000000000000D-01  1.2192137904218D+00 -5.3616201246426D-01
    52  5.1000000000000D-01  1.2331895216088D+00 -5.3186321639876D-01
    53  5.2000000000000D-01  1.2461874974620D+00 -5.2609012200516D-01
    54  5.3000000000000D-01  1.2581783341988D+00 -5.1880558746863D-01
    55  5.4000000000000D-01  1.2691345114385D+00 -5.0997668821464D-01
    56  5.5000000000000D-01  1.2790305074068D+00 -4.9957496846588D-01
    57  5.6000000000000D-01  1.2878429265133D+00 -4.8757667533266D-01
    58  5.7000000000000D-01  1.2955506186194D+00 -4.7396297402870D-01
    59  5.8000000000000D-01  1.3021347893552D+00 -4.5872014289072D-01
    60  5.9000000000000D-01  1.3075791008836D+00 -4.4183974697242D-01
    61  6.0000000000000D-01  1.3118697625592D+00 -4.2331878908333D-01
    62  6.1000000000000D-01  1.3149956109785D+00 -4.0315983725076D-01
    63  6.2000000000000D-01  1.3169481789692D+00 -3.8137112769458D-01
    64  6.3000000000000D-01  1.3177217531243D+00 -3.5796664252544D-01
    65  6.4000000000000D-01  1.3173134195417D+00 -3.3296616149970D-01
    66  6.5000000000000D-01  1.3157230974921D+00 -3.0639528729378D-01
    67  6.6000000000000D-01  1.3129535607981D+00 -2.7828544389289D-01
    68  6.7000000000000D-01  1.3090104467719D+00 -2.4867384782560D-01
    69  6.8000000000000D-01  1.3039022526221D+00 -2.1760345211329D-01
    70  6.9000000000000D-01  1.2976403193059D+00 -1.8512286294417D-01
    71  7.0000000000000D-01  1.2902388028689D+00 -1.5128622922374D-01
    72  7.1000000000000D-01  1.2817146333796D+00 -1.1615310529301D-01
    73  7.2000000000000D-01  1.2720874616314D+00 -7.9788287250076D-02
    74  7.3000000000000D-01  1.2613795938503D+00 -4.2261623447261D-02
    75  7.4000000000000D-01  1.2496159147093D+00 -3.6477998772254D-03
    76  7.5000000000000D-01  1.2368237990141D+00  3.5973898705789D-02
    77  7.6000000000000D-01  1.2230330124840D+00  7.6519850950654D-02
    78  7.7000000000000D-01  1.2082756021126D+00  1.1790238325275D-01
    79  7.8000000000000D-01  1.1925857766469D+00  1.6003007504918D-01
    80  7.9000000000000D-01  1.1759997777787D+00  2.0280808371866D-01
    81  8.0000000000000D-01  1.1585557426924D+00  2.4613848763182D-01
    82  8.1000000000000D-01  1.1402935586593D+00  2.8992064579239D-01
    83  8.2000000000000D-01  1.1212547104137D+00  3.3405157241521D-01
    84  8.3000000000000D-01  1.1014821210845D+00  3.7842632469979D-01
    85  8.4000000000000D-01  1.0810199874920D+00  4.2293840197907D-01
    86  8.5000000000000D-01  1.0599136106503D+00  4.6748015435493D-01
    87  8.6000000000000D-01  1.0382092223431D+00  5.1194319887165D-01
    88  8.7000000000000D-01  1.0159538086606D+00  5.5621884123002D-01
    89  8.8000000000000D-01  9.9319493140389D-01  6.0019850100614D-01
    90  8.9000000000000D-01  9.6998054827541D-01  6.4377413831018D-01
    91  9.0000000000000D-01  9.4635883277706D-01  6.8683867980471D-01
    92  9.1000000000000D-01  9.2237799474444D-01  7.2928644199501D-01
    93  9.2000000000000D-01  8.9808610243779D-01  7.7101354971005D-01
    94  9.3000000000000D-01  8.7353090710326D-01  8.1191834770926D-01
    95  9.4000000000000D-01  8.4875967090385D-01  8.5190180337765D-01
    96  9.5000000000000D-01  8.2381899909972D-01  8.9086789851159D-01
    97  9.6000000000000D-01  7.9875467733434D-01  9.2872400824556D-01
    98  9.7000000000000D-01  7.7361151485275D-01  9.6538126523336D-01
    99  9.8000000000000D-01  7.4843319444561D-01  1.0007549072649D+00
   100  9.9000000000000D-01  7.2326212987355D-01  1.0347646065832D+00
   101  1.0000000000000D+00  6.9813933148411D-01  1.0673347792552D+00
   102  1.0100000000000D+00  6.7310428068714D-01  1.0983948730479D+00
   103  1.0200000000000D+00  6.4819481390301D-01  1.1278796323742D+00
   104  1.0300000000000D+00  6.2344701654519D-01  1.1557293389817D+00
   105  1.0400000000000D+00  5.9889512754156D-01  1.1818900271842D+00
   106  1.0500000000000D+00  5.7457145483738D-01  1.2063136725670D+00
   107  1.0600000000000D+00  5.5050630226174D-01  1.2289583532272D+00
   108  1.0700000000000D+00  5.2672790807410D-01  1.2497883827557D+00
   109  1.0800000000000D+00  5.0326239543936D-01  1.2687744143112D+00
   110  1.0900000000000D+00  4.8013373501894D-01  1.2858935152730D+00
   111  1.1000000000000D+00  4.5736371978686D-01  1.3011292121291D+00
   112  1.1100000000000D+00  4.3497195211885D-01  1.3144715053904D+00
   113  1.1200000000000D+00  4.1297584312631D-01  1.3259168544904D+00
   114  1.1300000000000D+00  3.9139062414851D-01  1.3354681327565D+00
   115  1.1400000000000D+00  3.7022937023835D-01  1.3431345527166D+00
   116  1.1500000000000D+00  3.4950303541487D-01  1.3489315621370D+00
   117  1.1600000000000D+00  3.2922049938608D-01  1.3528807113499D+00
   118  1.1700000000000D+00  3.0938862539568D-01  1.3550094925358D+00
   119  1.1800000000000D+00  2.9001232877089D-01  1.3553511518033D+00
   120  1.1900000000000D+00  2.7109465569825D-01  1.3539444750191D+00
   121  1.2000000000000D+00  2.5263687169659D-01  1.3508335484789D+00
   122  1.2100000000000D+00  2.3463855921918D-01  1.3460674955892D+00
   123  1.2200000000000D+00  2.1709772374617D-01  1.3397001909024D+00
   124  1.2300000000000D+00  2.0001090769936D-01  1.3317899529125D+00
   125  1.2400000000000D+00  1.8337331148212D-01  1.3223992170910D+00
   126  1.2500000000000D+00  1.6717892089235D-01  1.3115941907740D+00
   127  1.2600000000000D+00  1.5142064013833D-01  1.2994444915646D+00
   128  1.2700000000000D+00  1.3609042967085D-01  1.2860227709494D+00
   129  1.2800000000000D+00  1.2117944801090D-01  1.2714043249253D+00
   130  1.2900000000000D+00  1.0667819674794D-01  1.2556666934501D+00
   131  1.3000000000000D+00  9.2576667878403D-02  1.2388892505485D+00
   132  1.3100000000000D+00  7.8864492639254D-02  1.2211527869550D+00
   133  1.3200000000000D+00  6.5531091012927D-02  1.2025390871472D+00
   134  1.3300000000000D+00  5.2565821068171D-02  1.1831305026438D+00
   135  1.3400000000000D+00  3.9958127322806D-02  1.1630095234254D+00
   136  1.3500000000000D+00  2.7697687357339D-02  1.1422583492567D+00
   137  1.3600000000000D+00  1.5774555868222D-02  1.1209584627649D+00
   138  1.3700000000000D+00  4.1793054580766D-03  1.0991902059456D+00
   139  1.3800000000000D+00 -7.0968365540242D-03  1.0770323617814D+00
   140  1.3900000000000D+00 -1.8061856007301D-02  1.0545617426515D+00
   141  1.4000000000000D+00 -2.8722825014524D-02  1.0318527869233D+00
   142  1.4100000000000D+00 -3.9085780984943D-02  1.0089771653310D+00
   143  1.4200000000000D+00 -4.9155612032570D-02  9.8600339838808D-01
   144  1.4300000000000D+00 -5.8935949241137D-02  9.6299648606109D-01
   145  1.4400000000000D+00 -6.8429066300120D-02  9.4001755102469D-01
   146  1.4500000000000D+00 -7.7635786730046D-02  9.1712349623043D-01
   147  1.4600000000000D+00 -8.6555399180010D-02  8.9436667804720D-01
   148  1.4700000000000D+00 -9.5185580902984D-02  8.7179459548373D-01
   149  1.4800000000000D+00 -1.0352232966189D-01  8.4944959629158D-01
   150  1.4900000000000D+00 -1.1155990422898D-01  8.2736860057391D-01
   151  1.5000000000000D+00 -1.1929077339531D-01  8.0558284201896D-01
   152  1.5100000000000D+00 -1.2670557372764D-01  7.8411762753686D-01
   153  1.5200000000000D+00 -1.3379307572385D-01  7.6299211487456D-01
   154  1.5300000000000D+00 -1.4054015853610D-01  7.4221910884947D-01
   155  1.5400000000000D+00 -1.4693179283739D-01  7.2180487561844D-01
   156  1.5500000000000D+00 -1.5295103177025D-01  7.0174897514628D-01
   157  1.5600000000000D+00 -1.5857900916009D-01  6.8204410801596D-01
   158  1.5700000000000D+00 -1.6379494755400D-01  6.6267599828731D-01
   159  1.5800000000000D+00 -1.6857616423073D-01  6.4362322655230D-01
   160  1.5900000000000D+00 -1.7289811089013D-01  6.2485727097326D-01
   161  1.6000000000000D+00 -1.7673438019556D-01  6.0634230212167D-01
   162  1.6100000000000D+00 -1.8005669428683D-01  5.8803475923454D-01
   163  1.6200000000000D+00 -1.8283507902235D-01  5.6988436109391D-01
   164  1.6300000000000D+00 -1.8503802287202D-01  5.5183498452704D-01
   165  1.6400000000000D+00 -1.8663270008373D-01  5.3382569076033D-01
   166  1.6500000000000D+00 -1.8758522930117D-01  5.1579202406205D-01
   167  1.6600000000000D+00 -1.8786076550668D-01  4.9766593826839D-01
   168  1.6700000000000D+00 -1.8742362772032D-01  4.7937593530640D-01
   169  1.6800000000000D+00 -1.8623745818798D-01  4.6084751023934D-01
   170  1.6900000000000D+00 -1.8426535872261D-01  4.4200337671799D-01
   171  1.7000000000000D+00 -1.8147003733094D-01  4.2276378241891D-01
   172  1.7100000000000D+00 -1.7781395125015D-01  4.0304679979614D-01
   173  1.7200000000000D+00 -1.7325944900528D-01  3.8276862015835D-01
   174  1.7300000000000D+00 -1.6776891017502D-01  3.6184384482900D-01
   175  1.7400000000000D+00 -1.6130488167837D-01  3.4018577057350D-01
   176  1.7500000000000D+00 -1.5383021011147D-01  3.1770666834047D-01
   177  1.7600000000000D+00 -1.4530816867174D-01  2.9431805179954D-01
   178  1.7700000000000D+00 -1.3570257863130D-01  2.6993093580865D-01
   179  1.7800000000000D+00 -1.2497792359028D-01  2.4445608056416D-01
   180  1.7900000000000D+00 -1.1309945689019D-01  2.1780422255584D-01
   181  1.8000000000000D+00 -9.9940694520059D-02  1.8972362605293D-01
   182  1.8100000000000D+00 -8.5680941166558D-02  1.6049837468190D-01
   183  1.8200000000000D+00 -7.0822414692628D-02  1.3098253518610D-01
   184  1.8300000000000D+00 -5.4102341929985D-02  9.8916961259052D-02
   185  1.8400000000000D+00 -3.3480520740949D-02  6.0661049995994D-02
   186  1.8500000000000D+00 -1.1966581063567D-02  2.1499228265495D-02
   187  1.8600000000000D+00  1.8541898945261D-03 -3.4348777686106D-03
   188  1.8700000000000D+00  3.5638351440227D-03 -6.4666852620235D-03
   189  1.8800000000000D+00 -6.2567639276605D-06  1.1405729184776D-05
   190  1.8900000000000D+00 -9.4369789208344D-04  1.7175434543742D-03
   191  1.9000000000000D+00 -2.8983456885717D-04  5.2699695455292D-04
   192  1.9100000000000D+00  1.1279552321610D-04 -2.0736690389313D-04
   193  1.9200000000000D+00  7.9877614042579D-05 -1.4677372892743D-04
   194  1.9300000000000D+00 -1.7701961427797D-07  4.9535315869450D-07
   195  1.9400000000000D+00 -2.3966976271513D-07  6.7066677604481D-07
   196  1.9500000000000D+00  0.0000000000000D+00  0.0000000000000D+00
   197  1.9600000000000D+00  0.0000000000000D+00  0.0000000000000D+00
   198  1.9700000000000D+00  0.0000000000000D+00  0.0000000000000D+00
   199  1.9800000000000D+00  0.0000000000000D+00  0.0000000000000D+00
   200  1.9900000000000D+00  0.0000000000000D+00  0.0000000000000D+00
   201  2.0000000000000D+00  0.0000000000000D+00  0.0000000000000D+00
   202  2.0100000000000D+00  0.0000000000000D+00  0.0000000000000D+00
   203  2.0200000000000D+00  0.0000000000000D+00  0.0000000000000D+00
   204  2.0300000000000D+00  0.0000000000000D+00  0.0000000000000D+00
   205  2.0400000000000D+00  0.0000000000000D+00  0.0000000000000D+00
   206  2.0500000000000D+00  0.0000000000000D+00  0.0000000000000D+00
   207  2.0600000000000D+00  0.0000000000000D+00  0.0000000000000D+00
   208  2.0700000000000D+00  0.0000000000000D+00  0.0000000000000D+00
   209  2.0800000000000D+00  0.0000000000000D+00  0.0000000000000D+00
   210  2.0900000000000D+00  0.0000000000000D+00  0.0000000000000D+00
   211  2.1000000000000D+00  0.0000000000000D+00  0.0000000000000D+00
   212  2.1100000000000D+00  0.0000000000000D+00  0.0000000000000D+00
   213  2.1200000000000D+00  0.0000000000000D+00  0.0000000000000D+00
   214  2.1300000000000D+00  0.0000000000000D+00  0.0000000000000D+00
   215  2.1400000000000D+00  0.0000000000000D+00  0.0000000000000D+00
   216  2.1500000000000D+00  0.0000000000000D+00  0.0000000000000D+00
   217  2.1600000000000D+00  0.0000000000000D+00  0.0000000000000D+00
   218  2.1700000000000D+00  0.0000000000000D+00  0.0000000000000D+00
   219  2.1800000000000D+00  0.0000000000000D+00  0.0000000000000D+00
   220  2.1900000000000D+00  0.0000000000000D+00  0.0000000000000D+00
   221  2.2000000000000D+00  0.0000000000000D+00  0.0000000000000D+00
   222  2.2100000000000D+00  0.0000000000000D+00  0.0000000000000D+00
   223  2.2200000000000D+00  0.0000000000000D+00  0.0000000000000D+00
   224  2.2300000000000D+00  0.0000000000000D+00  0.0000000000000D+00
   225  2.2400000000000D+00  0.0000000000000D+00  0.0000000000000D+00
   226  2.2500000000000D+00  0.0000000000000D+00  0.0000000000000D+00
   227  2.2600000000000D+00  0.0000000000000D+00  0.0000000000000D+00
   228  2.2700000000000D+00  0.0000000000000D+00  0.0000000000000D+00
   229  2.2800000000000D+00  0.0000000000000D+00  0.0000000000000D+00
   230  2.2900000000000D+00  0.0000000000000D+00  0.0000000000000D+00
   231  2.3000000000000D+00  0.0000000000000D+00  0.0000000000000D+00
   232  2.3100000000000D+00  0.0000000000000D+00  0.0000000000000D+00
   233  2.3200000000000D+00  0.0000000000000D+00  0.0000000000000D+00
   234  2.3300000000000D+00  0.0000000000000D+00  0.0000000000000D+00
   235  2.3400000000000D+00  0.0000000000000D+00  0.0000000000000D+00
   236  2.3500000000000D+00  0.0000000000000D+00  0.0000000000000D+00
   237  2.3600000000000D+00  0.0000000000000D+00  0.0000000000000D+00
   238  2.3700000000000D+00  0.0000000000000D+00  0.0000000000000D+00
   239  2.3800000000000D+00  0.0000000000000D+00  0.0000000000000D+00
   240  2.3900000000000D+00  0.0000000000000D+00  0.0000000000000D+00
   241  2.4000000000000D+00  0.0000000000000D+00  0.0000000000000D+00
   242  2.4100000000000D+00  0.0000000000000D+00  0.0000000000000D+00
   243  2.4200000000000D+00  0.0000000000000D+00  0.0000000000000D+00
   244  2.4300000000000D+00  0.0000000000000D+00  0.0000000000000D+00
   245  2.4400000000000D+00  0.0000000000000D+00  0.0000000000000D+00
   246  2.4500000000000D+00  0.0000000000000D+00  0.0000000000000D+00
   247  2.4600000000000D+00  0.0000000000000D+00  0.0000000000000D+00
   248  2.4700000000000D+00  0.0000000000000D+00  0.0000000000000D+00
   249  2.4800000000000D+00  0.0000000000000D+00  0.0000000000000D+00
   250  2.4900000000000D+00  0.0000000000000D+00  0.0000000000000D+00
   251  2.5000000000000D+00  0.0000000000000D+00  0.0000000000000D+00
   252  2.5100000000000D+00  0.0000000000000D+00  0.0000000000000D+00
   253  2.5200000000000D+00  0.0000000000000D+00  0.0000000000000D+00
   254  2.5300000000000D+00  0.0000000000000D+00  0.0000000000000D+00
   255  2.5400000000000D+00  0.0000000000000D+00  0.0000000000000D+00
   256  2.5500000000000D+00  0.0000000000000D+00  0.0000000000000D+00
   257  2.5600000000000D+00  0.0000000000000D+00  0.0000000000000D+00
   258  2.5700000000000D+00  0.0000000000000D+00  0.0000000000000D+00
   259  2.5800000000000D+00  0.0000000000000D+00  0.0000000000000D+00
   260  2.5900000000000D+00  0.0000000000000D+00  0.0000000000000D+00
   261  2.6000000000000D+00  0.0000000000000D+00  0.0000000000000D+00
   262  2.6100000000000D+00  0.0000000000000D+00  0.0000000000000D+00
   263  2.6200000000000D+00  0.0000000000000D+00  0.0000000000000D+00
   264  2.6300000000000D+00  0.0000000000000D+00  0.0000000000000D+00
   265  2.6400000000000D+00  0.0000000000000D+00  0.0000000000000D+00
   266  2.6500000000000D+00  0.0000000000000D+00  0.0000000000000D+00
   267  2.6600000000000D+00  0.0000000000000D+00  0.0000000000000D+00
   268  2.6700000000000D+00  0.0000000000000D+00  0.0000000000000D+00
   269  2.6800000000000D+00  0.0000000000000D+00  0.0000000000000D+00
   270  2.6900000000000D+00  0.0000000000000D+00  0.0000000000000D+00
   271  2.7000000000000D+00  0.0000000000000D+00  0.0000000000000D+00
   272  2.7100000000000D+00  0.0000000000000D+00  0.0000000000000D+00
   273  2.7200000000000D+00  0.0000000000000D+00  0.0000000000000D+00
   274  2.7300000000000D+00  0.0000000000000D+00  0.0000000000000D+00
   275  2.7400000000000D+00  0.0000000000000D+00  0.0000000000000D+00
   276  2.7500000000000D+00  0.0000000000000D+00  0.0000000000000D+00
   277  2.7600000000000D+00  0.0000000000000D+00  0.0000000000000D+00
   278  2.7700000000000D+00  0.0000000000000D+00  0.0000000000000D+00
   279  2.7800000000000D+00  0.0000000000000D+00  0.0000000000000D+00
   280  2.7900000000000D+00  0.0000000000000D+00  0.0000000000000D+00
   281  2.8000000000000D+00  0.0000000000000D+00  0.0000000000000D+00
   282  2.8100000000000D+00  0.0000000000000D+00  0.0000000000000D+00
   283  2.8200000000000D+00  0.0000000000000D+00  0.0000000000000D+00
   284  2.8300000000000D+00  0.0000000000000D+00  0.0000000000000D+00
   285  2.8400000000000D+00  0.0000000000000D+00  0.0000000000000D+00
   286  2.8500000000000D+00  0.0000000000000D+00  0.0000000000000D+00
   287  2.8600000000000D+00  0.0000000000000D+00  0.0000000000000D+00
   288  2.8700000000000D+00  0.0000000000000D+00  0.0000000000000D+00
   289  2.8800000000000D+00  0.0000000000000D+00  0.0000000000000D+00
   290  2.8900000000000D+00  0.0000000000000D+00  0.0000000000000D+00
   291  2.9000000000000D+00  0.0000000000000D+00  0.0000000000000D+00
   292  2.9100000000000D+00  0.0000000000000D+00  0.0000000000000D+00
   293  2.9200000000000D+00  0.0000000000000D+00  0.0000000000000D+00
   294  2.9300000000000D+00  0.0000000000000D+00  0.0000000000000D+00
   295  2.9400000000000D+00  0.0000000000000D+00  0.0000000000000D+00
   296  2.9500000000000D+00  0.0000000000000D+00  0.0000000000000D+00
   297  2.9600000000000D+00  0.0000000000000D+00  0.0000000000000D+00
   298  2.9700000000000D+00  0.0000000000000D+00  0.0000000000000D+00
   299  2.9800000000000D+00  0.0000000000000D+00  0.0000000000000D+00
   300  2.9900000000000D+00  0.0000000000000D+00  0.0000000000000D+00
   301  3.0000000000000D+00  0.0000000000000D+00  0.0000000000000D+00
   302  3.0100000000000D+00  0.0000000000000D+00  0.0000000000000D+00
   303  3.0200000000000D+00  0.0000000000000D+00  0.0000000000000D+00
   304  3.0300000000000D+00  0.0000000000000D+00  0.0000000000000D+00
   305  3.0400000000000D+00  0.0000000000000D+00  0.0000000000000D+00
   306  3.0500000000000D+00  0.0000000000000D+00  0.0000000000000D+00
   307  3.0600000000000D+00  0.0000000000000D+00  0.0000000000000D+00
   308  3.0700000000000D+00  0.0000000000000D+00  0.0000000000000D+00
   309  3.0800000000000D+00  0.0000000000000D+00  0.0000000000000D+00
   310  3.0900000000000D+00  0.0000000000000D+00  0.0000000000000D+00
   311  3.1000000000000D+00  0.0000000000000D+00  0.0000000000000D+00
   312  3.1100000000000D+00  0.0000000000000D+00  0.0000000000000D+00
   313  3.1200000000000D+00  0.0000000000000D+00  0.0000000000000D+00
   314  3.1300000000000D+00  0.0000000000000D+00  0.0000000000000D+00
   315  3.1400000000000D+00  0.0000000000000D+00  0.0000000000000D+00
   316  3.1500000000000D+00  0.0000000000000D+00  0.0000000000000D+00
   317  3.1600000000000D+00  0.0000000000000D+00  0.0000000000000D+00
   318  3.1700000000000D+00  0.0000000000000D+00  0.0000000000000D+00
   319  3.1800000000000D+00  0.0000000000000D+00  0.0000000000000D+00
   320  3.1900000000000D+00  0.0000000000000D+00  0.0000000000000D+00
   321  3.2000000000000D+00  0.0000000000000D+00  0.0000000000000D+00
   322  3.2100000000000D+00  0.0000000000000D+00  0.0000000000000D+00
   323  3.2200000000000D+00  0.0000000000000D+00  0.0000000000000D+00
   324  3.2300000000000D+00  0.0000000000000D+00  0.0000000000000D+00
   325  3.2400000000000D+00  0.0000000000000D+00  0.0000000000000D+00
   326  3.2500000000000D+00  0.0000000000000D+00  0.0000000000000D+00
   327  3.2600000000000D+00  0.0000000000000D+00  0.0000000000000D+00
   328  3.2700000000000D+00  0.0000000000000D+00  0.0000000000000D+00
   329  3.2800000000000D+00  0.0000000000000D+00  0.0000000000000D+00
   330  3.2900000000000D+00  0.0000000000000D+00  0.0000000000000D+00
   331  3.3000000000000D+00  0.0000000000000D+00  0.0000000000000D+00
   332  3.3100000000000D+00  0.0000000000000D+00  0.0000000000000D+00
   333  3.3200000000000D+00  0.0000000000000D+00  0.0000000000000D+00
   334  3.3300000000000D+00  0.0000000000000D+00  0.0000000000000D+00
   335  3.3400000000000D+00  0.0000000000000D+00  0.0000000000000D+00
   336  3.3500000000000D+00  0.0000000000000D+00  0.0000000000000D+00
   337  3.3600000000000D+00  0.0000000000000D+00  0.0000000000000D+00
   338  3.3700000000000D+00  0.0000000000000D+00  0.0000000000000D+00
   339  3.3800000000000D+00  0.0000000000000D+00  0.0000000000000D+00
   340  3.3900000000000D+00  0.0000000000000D+00  0.0000000000000D+00
   341  3.4000000000000D+00  0.0000000000000D+00  0.0000000000000D+00
   342  3.4100000000000D+00  0.0000000000000D+00  0.0000000000000D+00
   343  3.4200000000000D+00  0.0000000000000D+00  0.0000000000000D+00
   344  3.4300000000000D+00  0.0000000000000D+00  0.0000000000000D+00
   345  3.4400000000000D+00  0.0000000000000D+00  0.0000000000000D+00
   346  3.4500000000000D+00  0.0000000000000D+00  0.0000000000000D+00
   347  3.4600000000000D+00  0.0000000000000D+00  0.0000000000000D+00
   348  3.4700000000000D+00  0.0000000000000D+00  0.0000000000000D+00
   349  3.4800000000000D+00  0.0000000000000D+00  0.0000000000000D+00
   350  3.4900000000000D+00  0.0000000000000D+00  0.0000000000000D+00
   351  3.5000000000000D+00  0.0000000000000D+00  0.0000000000000D+00
   352  3.5100000000000D+00  0.0000000000000D+00  0.0000000000000D+00
   353  3.5200000000000D+00  0.0000000000000D+00  0.0000000000000D+00
   354  3.5300000000000D+00  0.0000000000000D+00  0.0000000000000D+00
   355  3.5400000000000D+00  0.0000000000000D+00  0.0000000000000D+00
   356  3.5500000000000D+00  0.0000000000000D+00  0.0000000000000D+00
   357  3.5600000000000D+00  0.0000000000000D+00  0.0000000000000D+00
   358  3.5700000000000D+00  0.0000000000000D+00  0.0000000000000D+00
   359  3.5800000000000D+00  0.0000000000000D+00  0.0000000000000D+00
   360  3.5900000000000D+00  0.0000000000000D+00  0.0000000000000D+00
   361  3.6000000000000D+00  0.0000000000000D+00  0.0000000000000D+00
   362  3.6100000000000D+00  0.0000000000000D+00  0.0000000000000D+00
   363  3.6200000000000D+00  0.0000000000000D+00  0.0000000000000D+00
   364  3.6300000000000D+00  0.0000000000000D+00  0.0000000000000D+00
   365  3.6400000000000D+00  0.0000000000000D+00  0.0000000000000D+00
   366  3.6500000000000D+00  0.0000000000000D+00  0.0000000000000D+00
   367  3.6600000000000D+00  0.0000000000000D+00  0.0000000000000D+00
   368  3.6700000000000D+00  0.0000000000000D+00  0.0000000000000D+00
   369  3.6800000000000D+00  0.0000000000000D+00  0.0000000000000D+00
   370  3.6900000000000D+00  0.0000000000000D+00  0.0000000000000D+00
   371  3.7000000000000D+00  0.0000000000000D+00  0.0000000000000D+00
   372  3.7100000000000D+00  0.0000000000000D+00  0.0000000000000D+00
   373  3.7200000000000D+00  0.0000000000000D+00  0.0000000000000D+00
   374  3.7300000000000D+00  0.0000000000000D+00  0.0000000000000D+00
   375  3.7400000000000D+00  0.0000000000000D+00  0.0000000000000D+00
   376  3.7500000000000D+00  0.0000000000000D+00  0.0000000000000D+00
   377  3.7600000000000D+00  0.0000000000000D+00  0.0000000000000D+00
   378  3.7700000000000D+00  0.0000000000000D+00  0.0000000000000D+00
   379  3.7800000000000D+00  0.0000000000000D+00  0.0000000000000D+00
   380  3.7900000000000D+00  0.0000000000000D+00  0.0000000000000D+00
   381  3.8000000000000D+00  0.0000000000000D+00  0.0000000000000D+00
   382  3.8100000000000D+00  0.0000000000000D+00  0.0000000000000D+00
   383  3.8200000000000D+00  0.0000000000000D+00  0.0000000000000D+00
   384  3.8300000000000D+00  0.0000000000000D+00  0.0000000000000D+00
   385  3.8400000000000D+00  0.0000000000000D+00  0.0000000000000D+00
   386  3.8500000000000D+00  0.0000000000000D+00  0.0000000000000D+00
   387  3.8600000000000D+00  0.0000000000000D+00  0.0000000000000D+00
   388  3.8700000000000D+00  0.0000000000000D+00  0.0000000000000D+00
   389  3.8800000000000D+00  0.0000000000000D+00  0.0000000000000D+00
   390  3.8900000000000D+00  0.0000000000000D+00  0.0000000000000D+00
   391  3.9000000000000D+00  0.0000000000000D+00  0.0000000000000D+00
   392  3.9100000000000D+00  0.0000000000000D+00  0.0000000000000D+00
   393  3.9200000000000D+00  0.0000000000000D+00  0.0000000000000D+00
   394  3.9300000000000D+00  0.0000000000000D+00  0.0000000000000D+00
   395  3.9400000000000D+00  0.0000000000000D+00  0.0000000000000D+00
   396  3.9500000000000D+00  0.0000000000000D+00  0.0000000000000D+00
   397  3.9600000000000D+00  0.0000000000000D+00  0.0000000000000D+00
   398  3.9700000000000D+00  0.0000000000000D+00  0.0000000000000D+00
   399  3.9800000000000D+00  0.0000000000000D+00  0.0000000000000D+00
   400  3.9900000000000D+00  0.0000000000000D+00  0.0000000000000D+00
   401  4.0000000000000D+00  0.0000000000000D+00  0.0000000000000D+00
   402  4.0100000000000D+00  0.0000000000000D+00  0.0000000000000D+00
   403  4.0200000000000D+00  0.0000000000000D+00  0.0000000000000D+00
   404  4.0300000000000D+00  0.0000000000000D+00  0.0000000000000D+00
   405  4.0400000000000D+00  0.0000000000000D+00  0.0000000000000D+00
   406  4.0500000000000D+00  0.0000000000000D+00  0.0000000000000D+00
   407  4.0600000000000D+00  0.0000000000000D+00  0.0000000000000D+00
   408  4.0700000000000D+00  0.0000000000000D+00  0.0000000000000D+00
   409  4.0800000000000D+00  0.0000000000000D+00  0.0000000000000D+00
   410  4.0900000000000D+00  0.0000000000000D+00  0.0000000000000D+00
   411  4.1000000000000D+00  0.0000000000000D+00  0.0000000000000D+00
   412  4.1100000000000D+00  0.0000000000000D+00  0.0000000000000D+00
   413  4.1200000000000D+00  0.0000000000000D+00  0.0000000000000D+00
   414  4.1300000000000D+00  0.0000000000000D+00  0.0000000000000D+00
   415  4.1400000000000D+00  0.0000000000000D+00  0.0000000000000D+00
   416  4.1500000000000D+00  0.0000000000000D+00  0.0000000000000D+00
   417  4.1600000000000D+00  0.0000000000000D+00  0.0000000000000D+00
   418  4.1700000000000D+00  0.0000000000000D+00  0.0000000000000D+00
   419  4.1800000000000D+00  0.0000000000000D+00  0.0000000000000D+00
   420  4.1900000000000D+00  0.0000000000000D+00  0.0000000000000D+00
   421  4.2000000000000D+00  0.0000000000000D+00  0.0000000000000D+00
   422  4.2100000000000D+00  0.0000000000000D+00  0.0000000000000D+00