Ga    ONCVPSP-3.3.0  r_core=   1.20912   1.31442   1.51670
     31.0000     21.0000      220117    zatom,zion,pspd
     8      11   2     4   600     0    pspcod,pspxc,lmax,lloc,mmax,r2well
  5.99000000  0.00000000  0.00000000    rchrg fchrg qchrg
     2     2     2     0     0    nproj
     1     1           extension_switch
   0                         4.9628059149267D+00 -1.2202227086211D+00
     1  0.0000000000000D+00  1.8156232073352D-09  8.4989099091715D-10
     2  1.0000000000000D-02  1.0007529430929D-01  2.2752540751682D-02
     3  2.0000000000000D-02  1.9984031706244D-01  4.5592964598977D-02
     4  3.0000000000000D-02  2.9898455773462D-01  6.8607875406372D-02
     5  4.0000000000000D-02  3.9719705354494D-01  9.1881335175873D-02
     6  5.0000000000000D-02  4.9416622706070D-01  1.1549363439565D-01
     7  6.0000000000000D-02  5.8957979896826D-01  1.3952011131262D-01
     8  7.0000000000000D-02  6.8312479890026D-01  1.6403003542566D-01
     9  8.0000000000000D-02  7.7448769539297D-01  1.8908556964616D-01
    10  9.0000000000000D-02  8.6335466382900D-01  2.1474082453139D-01
    11  1.0000000000000D-01  9.4941200863117D-01  2.4104101677667D-01
    12  1.1000000000000D-01  1.0323467530516D+00  2.6802174277098D-01
    13  1.2000000000000D-01  1.1118474066905D+00  2.9570837649562D-01
    14  1.3000000000000D-01  1.1876049174271D+00  3.2411559939590D-01
    15  1.4000000000000D-01  1.2593138108068D+00  3.5324706810470D-01
    16  1.5000000000000D-01  1.3266735161540D+00  3.8309522406585D-01
    17  1.6000000000000D-01  1.3893898748286D+00  4.1364124721923D-01
    18  1.7000000000000D-01  1.4471768221807D+00  4.4485515399384D-01
    19  1.8000000000000D-01  1.4997582309269D+00  4.7669603793410D-01
    20  1.9000000000000D-01  1.5468698999557D+00  5.0911244938484D-01
    21  2.0000000000000D-01  1.5882616690032D+00  5.4204290880707D-01
    22  2.1000000000000D-01  1.6236996363038D+00  5.7541654651372D-01
    23  2.2000000000000D-01  1.6529684532503D+00  6.0915385992800D-01
    24  2.3000000000000D-01  1.6758736673593D+00  6.4316757789740D-01
    25  2.4000000000000D-01  1.6922440824709D+00  6.7736362016735D-01
    26  2.5000000000000D-01  1.7019341031642D+00  7.1164213884811D-01
    27  2.6000000000000D-01  1.7048260288740D+00  7.4589862761569D-01
    28  2.7000000000000D-01  1.7008322621917D+00  7.8002508348652D-01
    29  2.8000000000000D-01  1.6898973953355D+00  8.1391120531057D-01
    30  2.9000000000000D-01  1.6720001388157D+00  8.4744561264779D-01
    31  3.0000000000000D-01  1.6471550568966D+00  8.8051706843599D-01
    32  3.1000000000000D-01  1.6154140755850D+00  9.1301568882941D-01
    33  3.2000000000000D-01  1.5768677305377D+00  9.4483412378681D-01
    34  3.3000000000000D-01  1.5316461244794D+00  9.7586869241511D-01
    35  3.4000000000000D-01  1.4799195664263D+00  1.0060204577245D+00
    36  3.5000000000000D-01  1.4218988681992D+00  1.0351962263149D+00
    37  3.6000000000000D-01  1.3578352773474D+00  1.0633094595829D+00
    38  3.7000000000000D-01  1.2880200296453D+00  1.0902810842957D+00
    39  3.8000000000000D-01  1.2127835087283D+00  1.1160401918121D+00
    40  3.9000000000000D-01  1.1324940051341D+00  1.1405246168193D+00
    41  4.0000000000000D-01  1.0475560719729D+00  1.1636813881723D+00
    42  4.1000000000000D-01  9.5840847957378D-01  1.1854670462591D+00
    43  4.2000000000000D-01  8.6552177670377D-01  1.2058478232301D+00
    44  4.3000000000000D-01  7.6939547123842D-01  1.2247996844089D+00
    45  4.4000000000000D-01  6.7055484842161D-01  1.2423082312103D+00
    46  4.5000000000000D-01  5.6954745000198D-01  1.2583684679056D+00
    47  4.6000000000000D-01  4.6693924250885D-01  1.2729844365635D+00
    48  4.7000000000000D-01  3.6331050765449D-01  1.2861687264336D+00
    49  4.8000000000000D-01  2.5925149225303D-01  1.2979418658919D+00
    50  4.9000000000000D-01  1.5535785906172D-01  1.3083316068195D+00
    51  5.0000000000000D-01  5.2225983514919D-02  1.3173721128996D+00
    52  5.1000000000000D-01 -4.9551855624328D-02  1.3251030647757D+00
    53  5.2000000000000D-01 -1.4939234117736D-01  1.3315686962936D+00
    54  5.3000000000000D-01 -2.4672598562421D-01  1.3368167771283D+00
    55  5.4000000000000D-01 -3.4100194869452D-01  1.3408975579614D+00
    56  5.5000000000000D-01 -4.3169275026546D-01  1.3438626950047D+00
    57  5.6000000000000D-01 -5.1829882448498D-01  1.3457641710615D+00
    58  5.7000000000000D-01 -6.0035286187881D-01  1.3466532304516D+00
    59  5.8000000000000D-01 -6.7742388773899D-01  1.3465793450210D+00
    60  5.9000000000000D-01 -7.4912102734910D-01  1.3455892280834D+00
    61  6.0000000000000D-01 -8.1509691151796D-01  1.3437259125295D+00
    62  6.1000000000000D-01 -8.7505067949703D-01  1.3410279084669D+00
    63  6.2000000000000D-01 -9.2873054054759D-01  1.3375284546658D+00
    64  6.3000000000000D-01 -9.7593586021034D-01  1.3332548767568D+00
    65  6.4000000000000D-01 -1.0165187426365D+00  1.3282280636064D+00
    66  6.5000000000000D-01 -1.0503850860642D+00  1.3224620715912D+00
    67  6.6000000000000D-01 -1.0774950946946D+00  1.3159638646161D+00
    68  6.7000000000000D-01 -1.0978632366519D+00  1.3087331957193D+00
    69  6.8000000000000D-01 -1.1115576443699D+00  1.3007626339999D+00
    70  6.9000000000000D-01 -1.1186989605836D+00  1.2920377384051D+00
    71  7.0000000000000D-01 -1.1194586399438D+00  1.2825373776847D+00
    72  7.1000000000000D-01 -1.1140567231065D+00  1.2722341935605D+00
    73  7.2000000000000D-01 -1.1027591067996D+00  1.2610952019408D+00
    74  7.3000000000000D-01 -1.0858743398571D+00  1.2490825248103D+00
    75  7.4000000000000D-01 -1.0637499813243D+00  1.2361542433425D+00
    76  7.5000000000000D-01 -1.0367685624692D+00  1.2222653607915D+00
    77  7.6000000000000D-01 -1.0053431997777D+00  1.2073688618898D+00
    78  7.7000000000000D-01 -9.6991291068593D-01  1.1914168538114D+00
    79  7.8000000000000D-01 -9.3093768783377D-01  1.1743617723061D+00
    80  7.9000000000000D-01 -8.8889339097516D-01  1.1561576353661D+00
    81  8.0000000000000D-01 -8.4426651826250D-01  1.1367613258030D+00
    82  8.1000000000000D-01 -7.9754892041781D-01  1.1161338833774D+00
    83  8.2000000000000D-01 -7.4923252226979D-01  1.0942417866771D+00
    84  8.3000000000000D-01 -6.9980411625172D-01  1.0710582047674D+00
    85  8.4000000000000D-01 -6.4974029171180D-01  1.0465641987661D+00
    86  8.5000000000000D-01 -5.9950256228559D-01  1.0207498539079D+00
    87  8.6000000000000D-01 -5.4953275113485D-01  9.9361532337625D-01
    88  8.7000000000000D-01 -5.0024869059285D-01  9.6517176616391D-01
    89  8.8000000000000D-01 -4.5204028871184D-01  9.3544216249078D-01
    90  8.9000000000000D-01 -4.0526601043267D-01  9.0446199182028D-01
    91  9.0000000000000D-01 -3.6024981564843D-01  8.7227976027207D-01
    92  9.1000000000000D-01 -3.1727859038464D-01  8.3895736619475D-01
    93  9.2000000000000D-01 -2.7660010074599D-01  8.0457029481667D-01
    94  9.3000000000000D-01 -2.3842149227168D-01  7.6920763520471D-01
    95  9.4000000000000D-01 -2.0290835000225D-01  7.3297191519414D-01
    96  9.5000000000000D-01 -1.7018432689431D-01  6.9597875250625D-01
    97  9.6000000000000D-01 -1.4033134067433D-01  6.5835632279237D-01
    98  9.7000000000000D-01 -1.1339033121988D-01  6.2024464802565D-01
    99  9.8000000000000D-01 -8.9362563042906D-02  5.8179471118785D-01
   100  9.9000000000000D-01 -6.8211449880871D-02  5.4316740574728D-01
   101  1.0000000000000D+00 -4.9864871198816D-02  5.0453233085323D-01
   102  1.0100000000000D+00 -3.4217943595133D-02  4.6606644547172D-01
   103  1.0200000000000D+00 -2.1136203707074D-02  4.2795259684758D-01
   104  1.0300000000000D+00 -1.0459153593066D-02  3.9037794057509D-01
   105  1.0400000000000D+00 -2.0041143852231D-03  3.5353227130737D-01
   106  1.0500000000000D+00  4.4296703886129D-03  3.1760628461190D-01
   107  1.0600000000000D+00  9.0567438564408D-03  2.8278979163076D-01
   108  1.0700000000000D+00  1.2101022038186D-02  2.4926990912083D-01
   109  1.0800000000000D+00  1.3791323791302D-02  2.1722924800042D-01
   110  1.0900000000000D+00  1.4356911973097D-02  1.8684412383166D-01
   111  1.1000000000000D+00  1.4023113225107D-02  1.5828281258340D-01
   112  1.1100000000000D+00  1.3007082793490D-02  1.3170387463618D-01
   113  1.1200000000000D+00  1.1513778606216D-02  1.0725456917879D-01
   114  1.1300000000000D+00  9.7322065241401D-03  8.5069380305649D-02
   115  1.1400000000000D+00  7.8319945925539D-03  6.5268674647728D-02
   116  1.1500000000000D+00  5.9603497094907D-03  4.7957508788750D-02
   117  1.1600000000000D+00  4.2394442712121D-03  3.3224602625323D-02
   118  1.1700000000000D+00  2.7648792017673D-03  2.1145531519598D-02
   119  1.1800000000000D+00  1.6011941413858D-03  1.1762941040192D-02
   120  1.1900000000000D+00  7.7900319206298D-04  5.0835511324398D-03
   121  1.2000000000000D+00  3.5041380014823D-04  1.3463618051793D-03
   122  1.2100000000000D+00  1.7901393948217D-04  4.5681783318083D-05
   123  1.2200000000000D+00  3.6393075267059D-05 -5.3208515641984D-05
   124  1.2300000000000D+00 -1.5554903146327D-05  3.3707475851443D-05
   125  1.2400000000000D+00  1.5765216597595D-06 -2.2473920623914D-06
   126  1.2500000000000D+00  2.0722327300985D-06 -3.4286038145948D-06
   127  1.2600000000000D+00 -5.4623249052485D-07 -2.6819413473243D-07
   128  1.2700000000000D+00  0.0000000000000D+00  0.0000000000000D+00
   129  1.2800000000000D+00  0.0000000000000D+00  0.0000000000000D+00
   130  1.2900000000000D+00  0.0000000000000D+00  0.0000000000000D+00
   131  1.3000000000000D+00  0.0000000000000D+00  0.0000000000000D+00
   132  1.3100000000000D+00  0.0000000000000D+00  0.0000000000000D+00
   133  1.3200000000000D+00  0.0000000000000D+00  0.0000000000000D+00
   134  1.3300000000000D+00  0.0000000000000D+00  0.0000000000000D+00
   135  1.3400000000000D+00  0.0000000000000D+00  0.0000000000000D+00
   136  1.3500000000000D+00  0.0000000000000D+00  0.0000000000000D+00
   137  1.3600000000000D+00  0.0000000000000D+00  0.0000000000000D+00
   138  1.3700000000000D+00  0.0000000000000D+00  0.0000000000000D+00
   139  1.3800000000000D+00  0.0000000000000D+00  0.0000000000000D+00
   140  1.3900000000000D+00  0.0000000000000D+00  0.0000000000000D+00
   141  1.4000000000000D+00  0.0000000000000D+00  0.0000000000000D+00
   142  1.4100000000000D+00  0.0000000000000D+00  0.0000000000000D+00
   143  1.4200000000000D+00  0.0000000000000D+00  0.0000000000000D+00
   144  1.4300000000000D+00  0.0000000000000D+00  0.0000000000000D+00
   145  1.4400000000000D+00  0.0000000000000D+00  0.0000000000000D+00
   146  1.4500000000000D+00  0.0000000000000D+00  0.0000000000000D+00
   147  1.4600000000000D+00  0.0000000000000D+00  0.0000000000000D+00
   148  1.4700000000000D+00  0.0000000000000D+00  0.0000000000000D+00
   149  1.4800000000000D+00  0.0000000000000D+00  0.0000000000000D+00
   150  1.4900000000000D+00  0.0000000000000D+00  0.0000000000000D+00
   151  1.5000000000000D+00  0.0000000000000D+00  0.0000000000000D+00
   152  1.5100000000000D+00  0.0000000000000D+00  0.0000000000000D+00
   153  1.5200000000000D+00  0.0000000000000D+00  0.0000000000000D+00
   154  1.5300000000000D+00  0.0000000000000D+00  0.0000000000000D+00
   155  1.5400000000000D+00  0.0000000000000D+00  0.0000000000000D+00
   156  1.5500000000000D+00  0.0000000000000D+00  0.0000000000000D+00
   157  1.5600000000000D+00  0.0000000000000D+00  0.0000000000000D+00
   158  1.5700000000000D+00  0.0000000000000D+00  0.0000000000000D+00
   159  1.5800000000000D+00  0.0000000000000D+00  0.0000000000000D+00
   160  1.5900000000000D+00  0.0000000000000D+00  0.0000000000000D+00
   161  1.6000000000000D+00  0.0000000000000D+00  0.0000000000000D+00
   162  1.6100000000000D+00  0.0000000000000D+00  0.0000000000000D+00
   163  1.6200000000000D+00  0.0000000000000D+00  0.0000000000000D+00
   164  1.6300000000000D+00  0.0000000000000D+00  0.0000000000000D+00
   165  1.6400000000000D+00  0.0000000000000D+00  0.0000000000000D+00
   166  1.6500000000000D+00  0.0000000000000D+00  0.0000000000000D+00
   167  1.6600000000000D+00  0.0000000000000D+00  0.0000000000000D+00
   168  1.6700000000000D+00  0.0000000000000D+00  0.0000000000000D+00
   169  1.6800000000000D+00  0.0000000000000D+00  0.0000000000000D+00
   170  1.6900000000000D+00  0.0000000000000D+00  0.0000000000000D+00
   171  1.7000000000000D+00  0.0000000000000D+00  0.0000000000000D+00
   172  1.7100000000000D+00  0.0000000000000D+00  0.0000000000000D+00
   173  1.7200000000000D+00  0.0000000000000D+00  0.0000000000000D+00
   174  1.7300000000000D+00  0.0000000000000D+00  0.0000000000000D+00
   175  1.7400000000000D+00  0.0000000000000D+00  0.0000000000000D+00
   176  1.7500000000000D+00  0.0000000000000D+00  0.0000000000000D+00
   177  1.7600000000000D+00  0.0000000000000D+00  0.0000000000000D+00
   178  1.7700000000000D+00  0.0000000000000D+00  0.0000000000000D+00
   179  1.7800000000000D+00  0.0000000000000D+00  0.0000000000000D+00
   180  1.7900000000000D+00  0.0000000000000D+00  0.0000000000000D+00
   181  1.8000000000000D+00  0.0000000000000D+00  0.0000000000000D+00
   182  1.8100000000000D+00  0.0000000000000D+00  0.0000000000000D+00
   183  1.8200000000000D+00  0.0000000000000D+00  0.0000000000000D+00
   184  1.8300000000000D+00  0.0000000000000D+00  0.0000000000000D+00
   185  1.8400000000000D+00  0.0000000000000D+00  0.0000000000000D+00
   186  1.8500000000000D+00  0.0000000000000D+00  0.0000000000000D+00
   187  1.8600000000000D+00  0.0000000000000D+00  0.0000000000000D+00
   188  1.8700000000000D+00  0.0000000000000D+00  0.0000000000000D+00
   189  1.8800000000000D+00  0.0000000000000D+00  0.0000000000000D+00
   190  1.8900000000000D+00  0.0000000000000D+00  0.0000000000000D+00
   191  1.9000000000000D+00  0.0000000000000D+00  0.0000000000000D+00
   192  1.9100000000000D+00  0.0000000000000D+00  0.0000000000000D+00
   193  1.9200000000000D+00  0.0000000000000D+00  0.0000000000000D+00
   194  1.9300000000000D+00  0.0000000000000D+00  0.0000000000000D+00
   195  1.9400000000000D+00  0.0000000000000D+00  0.0000000000000D+00
   196  1.9500000000000D+00  0.0000000000000D+00  0.0000000000000D+00
   197  1.9600000000000D+00  0.0000000000000D+00  0.0000000000000D+00
   198  1.9700000000000D+00  0.0000000000000D+00  0.0000000000000D+00
   199  1.9800000000000D+00  0.0000000000000D+00  0.0000000000000D+00
   200  1.9900000000000D+00  0.0000000000000D+00  0.0000000000000D+00
   201  2.0000000000000D+00  0.0000000000000D+00  0.0000000000000D+00
   202  2.0100000000000D+00  0.0000000000000D+00  0.0000000000000D+00
   203  2.0200000000000D+00  0.0000000000000D+00  0.0000000000000D+00
   204  2.0300000000000D+00  0.0000000000000D+00  0.0000000000000D+00
   205  2.0400000000000D+00  0.0000000000000D+00  0.0000000000000D+00
   206  2.0500000000000D+00  0.0000000000000D+00  0.0000000000000D+00
   207  2.0600000000000D+00  0.0000000000000D+00  0.0000000000000D+00
   208  2.0700000000000D+00  0.0000000000000D+00  0.0000000000000D+00
   209  2.0800000000000D+00  0.0000000000000D+00  0.0000000000000D+00
   210  2.0900000000000D+00  0.0000000000000D+00  0.0000000000000D+00
   211  2.1000000000000D+00  0.0000000000000D+00  0.0000000000000D+00
   212  2.1100000000000D+00  0.0000000000000D+00  0.0000000000000D+00
   213  2.1200000000000D+00  0.0000000000000D+00  0.0000000000000D+00
   214  2.1300000000000D+00  0.0000000000000D+00  0.0000000000000D+00
   215  2.1400000000000D+00  0.0000000000000D+00  0.0000000000000D+00
   216  2.1500000000000D+00  0.0000000000000D+00  0.0000000000000D+00
   217  2.1600000000000D+00  0.0000000000000D+00  0.0000000000000D+00
   218  2.1700000000000D+00  0.0000000000000D+00  0.0000000000000D+00
   219  2.1800000000000D+00  0.0000000000000D+00  0.0000000000000D+00
   220  2.1900000000000D+00  0.0000000000000D+00  0.0000000000000D+00
   221  2.2000000000000D+00  0.0000000000000D+00  0.0000000000000D+00
   222  2.2100000000000D+00  0.0000000000000D+00  0.0000000000000D+00
   223  2.2200000000000D+00  0.0000000000000D+00  0.0000000000000D+00
   224  2.2300000000000D+00  0.0000000000000D+00  0.0000000000000D+00
   225  2.2400000000000D+00  0.0000000000000D+00  0.0000000000000D+00
   226  2.2500000000000D+00  0.0000000000000D+00  0.0000000000000D+00
   227  2.2600000000000D+00  0.0000000000000D+00  0.0000000000000D+00
   228  2.2700000000000D+00  0.0000000000000D+00  0.0000000000000D+00
   229  2.2800000000000D+00  0.0000000000000D+00  0.0000000000000D+00
   230  2.2900000000000D+00  0.0000000000000D+00  0.0000000000000D+00
   231  2.3000000000000D+00  0.0000000000000D+00  0.0000000000000D+00
   232  2.3100000000000D+00  0.0000000000000D+00  0.0000000000000D+00
   233  2.3200000000000D+00  0.0000000000000D+00  0.0000000000000D+00
   234  2.3300000000000D+00  0.0000000000000D+00  0.0000000000000D+00
   235  2.3400000000000D+00  0.0000000000000D+00  0.0000000000000D+00
   236  2.3500000000000D+00  0.0000000000000D+00  0.0000000000000D+00
   237  2.3600000000000D+00  0.0000000000000D+00  0.0000000000000D+00
   238  2.3700000000000D+00  0.0000000000000D+00  0.0000000000000D+00
   239  2.3800000000000D+00  0.0000000000000D+00  0.0000000000000D+00
   240  2.3900000000000D+00  0.0000000000000D+00  0.0000000000000D+00
   241  2.4000000000000D+00  0.0000000000000D+00  0.0000000000000D+00
   242  2.4100000000000D+00  0.0000000000000D+00  0.0000000000000D+00
   243  2.4200000000000D+00  0.0000000000000D+00  0.0000000000000D+00
   244  2.4300000000000D+00  0.0000000000000D+00  0.0000000000000D+00
   245  2.4400000000000D+00  0.0000000000000D+00  0.0000000000000D+00
   246  2.4500000000000D+00  0.0000000000000D+00  0.0000000000000D+00
   247  2.4600000000000D+00  0.0000000000000D+00  0.0000000000000D+00
   248  2.4700000000000D+00  0.0000000000000D+00  0.0000000000000D+00
   249  2.4800000000000D+00  0.0000000000000D+00  0.0000000000000D+00
   250  2.4900000000000D+00  0.0000000000000D+00  0.0000000000000D+00
   251  2.5000000000000D+00  0.0000000000000D+00  0.0000000000000D+00
   252  2.5100000000000D+00  0.0000000000000D+00  0.0000000000000D+00
   253  2.5200000000000D+00  0.0000000000000D+00  0.0000000000000D+00
   254  2.5300000000000D+00  0.0000000000000D+00  0.0000000000000D+00
   255  2.5400000000000D+00  0.0000000000000D+00  0.0000000000000D+00
   256  2.5500000000000D+00  0.0000000000000D+00  0.0000000000000D+00
   257  2.5600000000000D+00  0.0000000000000D+00  0.0000000000000D+00
   258  2.5700000000000D+00  0.0000000000000D+00  0.0000000000000D+00
   259  2.5800000000000D+00  0.0000000000000D+00  0.0000000000000D+00
   260  2.5900000000000D+00  0.0000000000000D+00  0.0000000000000D+00
   261  2.6000000000000D+00  0.0000000000000D+00  0.0000000000000D+00
   262  2.6100000000000D+00  0.0000000000000D+00  0.0000000000000D+00
   263  2.6200000000000D+00  0.0000000000000D+00  0.0000000000000D+00
   264  2.6300000000000D+00  0.0000000000000D+00  0.0000000000000D+00
   265  2.6400000000000D+00  0.0000000000000D+00  0.0000000000000D+00
   266  2.6500000000000D+00  0.0000000000000D+00  0.0000000000000D+00
   267  2.6600000000000D+00  0.0000000000000D+00  0.0000000000000D+00
   268  2.6700000000000D+00  0.0000000000000D+00  0.0000000000000D+00
   269  2.6800000000000D+00  0.0000000000000D+00  0.0000000000000D+00
   270  2.6900000000000D+00  0.0000000000000D+00  0.0000000000000D+00
   271  2.7000000000000D+00  0.0000000000000D+00  0.0000000000000D+00
   272  2.7100000000000D+00  0.0000000000000D+00  0.0000000000000D+00
   273  2.7200000000000D+00  0.0000000000000D+00  0.0000000000000D+00
   274  2.7300000000000D+00  0.0000000000000D+00  0.0000000000000D+00
   275  2.7400000000000D+00  0.0000000000000D+00  0.0000000000000D+00
   276  2.7500000000000D+00  0.0000000000000D+00  0.0000000000000D+00
   277  2.7600000000000D+00  0.0000000000000D+00  0.0000000000000D+00
   278  2.7700000000000D+00  0.0000000000000D+00  0.0000000000000D+00
   279  2.7800000000000D+00  0.0000000000000D+00  0.0000000000000D+00
   280  2.7900000000000D+00  0.0000000000000D+00  0.0000000000000D+00
   281  2.8000000000000D+00  0.0000000000000D+00  0.0000000000000D+00
   282  2.8100000000000D+00  0.0000000000000D+00  0.0000000000000D+00
   283  2.8200000000000D+00  0.0000000000000D+00  0.0000000000000D+00
   284  2.8300000000000D+00  0.0000000000000D+00  0.0000000000000D+00
   285  2.8400000000000D+00  0.0000000000000D+00  0.0000000000000D+00
   286  2.8500000000000D+00  0.0000000000000D+00  0.0000000000000D+00
   287  2.8600000000000D+00  0.0000000000000D+00  0.0000000000000D+00
   288  2.8700000000000D+00  0.0000000000000D+00  0.0000000000000D+00
   289  2.8800000000000D+00  0.0000000000000D+00  0.0000000000000D+00
   290  2.8900000000000D+00  0.0000000000000D+00  0.0000000000000D+00
   291  2.9000000000000D+00  0.0000000000000D+00  0.0000000000000D+00
   292  2.9100000000000D+00  0.0000000000000D+00  0.0000000000000D+00
   293  2.9200000000000D+00  0.0000000000000D+00  0.0000000000000D+00
   294  2.9300000000000D+00  0.0000000000000D+00  0.0000000000000D+00
   295  2.9400000000000D+00  0.0000000000000D+00  0.0000000000000D+00
   296  2.9500000000000D+00  0.0000000000000D+00  0.0000000000000D+00
   297  2.9600000000000D+00  0.0000000000000D+00  0.0000000000000D+00
   298  2.9700000000000D+00  0.0000000000000D+00  0.0000000000000D+00
   299  2.9800000000000D+00  0.0000000000000D+00  0.0000000000000D+00
   300  2.9900000000000D+00  0.0000000000000D+00  0.0000000000000D+00
   301  3.0000000000000D+00  0.0000000000000D+00  0.0000000000000D+00
   302  3.0100000000000D+00  0.0000000000000D+00  0.0000000000000D+00
   303  3.0200000000000D+00  0.0000000000000D+00  0.0000000000000D+00
   304  3.0300000000000D+00  0.0000000000000D+00  0.0000000000000D+00
   305  3.0400000000000D+00  0.0000000000000D+00  0.0000000000000D+00
   306  3.0500000000000D+00  0.0000000000000D+00  0.0000000000000D+00
   307  3.0600000000000D+00  0.0000000000000D+00  0.0000000000000D+00
   308  3.0700000000000D+00  0.0000000000000D+00  0.0000000000000D+00
   309  3.0800000000000D+00  0.0000000000000D+00  0.0000000000000D+00
   310  3.0900000000000D+00  0.0000000000000D+00  0.0000000000000D+00
   311  3.1000000000000D+00  0.0000000000000D+00  0.0000000000000D+00
   312  3.1100000000000D+00  0.0000000000000D+00  0.0000000000000D+00
   313  3.1200000000000D+00  0.0000000000000D+00  0.0000000000000D+00
   314  3.1300000000000D+00  0.0000000000000D+00  0.0000000000000D+00
   315  3.1400000000000D+00  0.0000000000000D+00  0.0000000000000D+00
   316  3.1500000000000D+00  0.0000000000000D+00  0.0000000000000D+00
   317  3.1600000000000D+00  0.0000000000000D+00  0.0000000000000D+00
   318  3.1700000000000D+00  0.0000000000000D+00  0.0000000000000D+00
   319  3.1800000000000D+00  0.0000000000000D+00  0.0000000000000D+00
   320  3.1900000000000D+00  0.0000000000000D+00  0.0000000000000D+00
   321  3.2000000000000D+00  0.0000000000000D+00  0.0000000000000D+00
   322  3.2100000000000D+00  0.0000000000000D+00  0.0000000000000D+00
   323  3.2200000000000D+00  0.0000000000000D+00  0.0000000000000D+00
   324  3.2300000000000D+00  0.0000000000000D+00  0.0000000000000D+00
   325  3.2400000000000D+00  0.0000000000000D+00  0.0000000000000D+00
   326  3.2500000000000D+00  0.0000000000000D+00  0.0000000000000D+00
   327  3.2600000000000D+00  0.0000000000000D+00  0.0000000000000D+00
   328  3.2700000000000D+00  0.0000000000000D+00  0.0000000000000D+00
   329  3.2800000000000D+00  0.0000000000000D+00  0.0000000000000D+00
   330  3.2900000000000D+00  0.0000000000000D+00  0.0000000000000D+00
   331  3.3000000000000D+00  0.0000000000000D+00  0.0000000000000D+00
   332  3.3100000000000D+00  0.0000000000000D+00  0.0000000000000D+00
   333  3.3200000000000D+00  0.0000000000000D+00  0.0000000000000D+00
   334  3.3300000000000D+00  0.0000000000000D+00  0.0000000000000D+00
   335  3.3400000000000D+00  0.0000000000000D+00  0.0000000000000D+00
   336  3.3500000000000D+00  0.0000000000000D+00  0.0000000000000D+00
   337  3.3600000000000D+00  0.0000000000000D+00  0.0000000000000D+00
   338  3.3700000000000D+00  0.0000000000000D+00  0.0000000000000D+00
   339  3.3800000000000D+00  0.0000000000000D+00  0.0000000000000D+00
   340  3.3900000000000D+00  0.0000000000000D+00  0.0000000000000D+00
   341  3.4000000000000D+00  0.0000000000000D+00  0.0000000000000D+00
   342  3.4100000000000D+00  0.0000000000000D+00  0.0000000000000D+00
   343  3.4200000000000D+00  0.0000000000000D+00  0.0000000000000D+00
   344  3.4300000000000D+00  0.0000000000000D+00  0.0000000000000D+00
   345  3.4400000000000D+00  0.0000000000000D+00  0.0000000000000D+00
   346  3.4500000000000D+00  0.0000000000000D+00  0.0000000000000D+00
   347  3.4600000000000D+00  0.0000000000000D+00  0.0000000000000D+00
   348  3.4700000000000D+00  0.0000000000000D+00  0.0000000000000D+00
   349  3.4800000000000D+00  0.0000000000000D+00  0.0000000000000D+00
   350  3.4900000000000D+00  0.0000000000000D+00  0.0000000000000D+00
   351  3.5000000000000D+00  0.0000000000000D+00  0.0000000000000D+00
   352  3.5100000000000D+00  0.0000000000000D+00  0.0000000000000D+00
   353  3.5200000000000D+00  0.0000000000000D+00  0.0000000000000D+00
   354  3.5300000000000D+00  0.0000000000000D+00  0.0000000000000D+00
   355  3.5400000000000D+00  0.0000000000000D+00  0.0000000000000D+00
   356  3.5500000000000D+00  0.0000000000000D+00  0.0000000000000D+00
   357  3.5600000000000D+00  0.0000000000000D+00  0.0000000000000D+00
   358  3.5700000000000D+00  0.0000000000000D+00  0.0000000000000D+00
   359  3.5800000000000D+00  0.0000000000000D+00  0.0000000000000D+00
   360  3.5900000000000D+00  0.0000000000000D+00  0.0000000000000D+00
   361  3.6000000000000D+00  0.0000000000000D+00  0.0000000000000D+00
   362  3.6100000000000D+00  0.0000000000000D+00  0.0000000000000D+00
   363  3.6200000000000D+00  0.0000000000000D+00  0.0000000000000D+00
   364  3.6300000000000D+00  0.0000000000000D+00  0.0000000000000D+00
   365  3.6400000000000D+00  0.0000000000000D+00  0.0000000000000D+00
   366  3.6500000000000D+00  0.0000000000000D+00  0.0000000000000D+00
   367  3.6600000000000D+00  0.0000000000000D+00  0.0000000000000D+00
   368  3.6700000000000D+00  0.0000000000000D+00  0.0000000000000D+00
   369  3.6800000000000D+00  0.0000000000000D+00  0.0000000000000D+00
   370  3.6900000000000D+00  0.0000000000000D+00  0.0000000000000D+00
   371  3.7000000000000D+00  0.0000000000000D+00  0.0000000000000D+00
   372  3.7100000000000D+00  0.0000000000000D+00  0.0000000000000D+00
   373  3.7200000000000D+00  0.0000000000000D+00  0.0000000000000D+00
   374  3.7300000000000D+00  0.0000000000000D+00  0.0000000000000D+00
   375  3.7400000000000D+00  0.0000000000000D+00  0.0000000000000D+00
   376  3.7500000000000D+00  0.0000000000000D+00  0.0000000000000D+00
   377  3.7600000000000D+00  0.0000000000000D+00  0.0000000000000D+00
   378  3.7700000000000D+00  0.0000000000000D+00  0.0000000000000D+00
   379  3.7800000000000D+00  0.0000000000000D+00  0.0000000000000D+00
   380  3.7900000000000D+00  0.0000000000000D+00  0.0000000000000D+00
   381  3.8000000000000D+00  0.0000000000000D+00  0.0000000000000D+00
   382  3.8100000000000D+00  0.0000000000000D+00  0.0000000000000D+00
   383  3.8200000000000D+00  0.0000000000000D+00  0.0000000000000D+00
   384  3.8300000000000D+00  0.0000000000000D+00  0.0000000000000D+00
   385  3.8400000000000D+00  0.0000000000000D+00  0.0000000000000D+00
   386  3.8500000000000D+00  0.0000000000000D+00  0.0000000000000D+00
   387  3.8600000000000D+00  0.0000000000000D+00  0.0000000000000D+00
   388  3.8700000000000D+00  0.0000000000000D+00  0.0000000000000D+00
   389  3.8800000000000D+00  0.0000000000000D+00  0.0000000000000D+00
   390  3.8900000000000D+00  0.0000000000000D+00  0.0000000000000D+00
   391  3.9000000000000D+00  0.0000000000000D+00  0.0000000000000D+00
   392  3.9100000000000D+00  0.0000000000000D+00  0.0000000000000D+00
   393  3.9200000000000D+00  0.0000000000000D+00  0.0000000000000D+00
   394  3.9300000000000D+00  0.0000000000000D+00  0.0000000000000D+00
   395  3.9400000000000D+00  0.0000000000000D+00  0.0000000000000D+00
   396  3.9500000000000D+00  0.0000000000000D+00  0.0000000000000D+00
   397  3.9600000000000D+00  0.0000000000000D+00  0.0000000000000D+00
   398  3.9700000000000D+00  0.0000000000000D+00  0.0000000000000D+00
   399  3.9800000000000D+00  0.0000000000000D+00  0.0000000000000D+00
   400  3.9900000000000D+00  0.0000000000000D+00  0.0000000000000D+00
   401  4.0000000000000D+00  0.0000000000000D+00  0.0000000000000D+00
   402  4.0100000000000D+00  0.0000000000000D+00  0.0000000000000D+00
   403  4.0200000000000D+00  0.0000000000000D+00  0.0000000000000D+00
   404  4.0300000000000D+00  0.0000000000000D+00  0.0000000000000D+00
   405  4.0400000000000D+00  0.0000000000000D+00  0.0000000000000D+00
   406  4.0500000000000D+00  0.0000000000000D+00  0.0000000000000D+00
   407  4.0600000000000D+00  0.0000000000000D+00  0.0000000000000D+00
   408  4.0700000000000D+00  0.0000000000000D+00  0.0000000000000D+00
   409  4.0800000000000D+00  0.0000000000000D+00  0.0000000000000D+00
   410  4.0900000000000D+00  0.0000000000000D+00  0.0000000000000D+00
   411  4.1000000000000D+00  0.0000000000000D+00  0.0000000000000D+00
   412  4.1100000000000D+00  0.0000000000000D+00  0.0000000000000D+00
   413  4.1200000000000D+00  0.0000000000000D+00  0.0000000000000D+00
   414  4.1300000000000D+00  0.0000000000000D+00  0.0000000000000D+00
   415  4.1400000000000D+00  0.0000000000000D+00  0.0000000000000D+00
   416  4.1500000000000D+00  0.0000000000000D+00  0.0000000000000D+00
   417  4.1600000000000D+00  0.0000000000000D+00  0.0000000000000D+00
   418  4.1700000000000D+00  0.0000000000000D+00  0.0000000000000D+00
   419  4.1800000000000D+00  0.0000000000000D+00  0.0000000000000D+00
   420  4.1900000000000D+00  0.0000000000000D+00  0.0000000000000D+00
   421  4.2000000000000D+00  0.0000000000000D+00  0.0000000000000D+00
   422  4.2100000000000D+00  0.0000000000000D+00  0.0000000000000D+00