Rn    ONCVPSP-3.3.0  r_core=   2.20741   2.00650   1.80225
     86.0000     18.0000      220117    zatom,zion,pspd
     8      11   2     4   600     0    pspcod,pspxc,lmax,lloc,mmax,r2well
  5.99000000  0.00000000  0.00000000    rchrg fchrg qchrg
     2     2     2     0     0    nproj
     1     1           extension_switch
   0                         8.2190368275656D+00  1.6764065720010D+00
     1  0.0000000000000D+00  1.2055079157136D-12 -4.4595716008899D-12
     2  1.0000000000000D-02  1.1242469177314D-02  1.9409281259376D-02
     3  2.0000000000000D-02  2.2519561568792D-02  3.8737275166016D-02
     4  3.0000000000000D-02  3.3865760439921D-02  5.7902996262695D-02
     5  4.0000000000000D-02  4.5315269521649D-02  7.6826062020426D-02
     6  5.0000000000000D-02  5.6901874149887D-02  9.5426992146720D-02
     7  6.0000000000000D-02  6.8658803492294D-02  1.1362750530985D-01
     8  7.0000000000000D-02  8.0618594223447D-02  1.3135081242294D-01
     9  8.0000000000000D-02  9.2812956008209D-02  1.4852190563611D-01
    10  9.0000000000000D-02  1.0527263915163D-01  1.6506784219057D-01
    11  1.0000000000000D-01  1.1802730477175D-01  1.8091802229549D-01
    12  1.1000000000000D-01  1.3110539784936D-01  1.9600446019655D-01
    13  1.2000000000000D-01  1.4453402350601D-01  2.1026204761480D-01
    14  1.3000000000000D-01  1.5833882685847D-01  2.2362880874531D-01
    15  1.4000000000000D-01  1.7254387679370D-01  2.3604614601774D-01
    16  1.5000000000000D-01  1.8717155400468D-01  2.4745907583503D-01
    17  1.6000000000000D-01  2.0224244362198D-01  2.5781645352225D-01
    18  1.7000000000000D-01  2.1777523277062D-01  2.6707118673538D-01
    19  1.8000000000000D-01  2.3378661337564D-01  2.7518043659915D-01
    20  1.9000000000000D-01  2.5029119053228D-01  2.8210580586473D-01
    21  2.0000000000000D-01  2.6730139674940D-01  2.8781351340135D-01
    22  2.1000000000000D-01  2.8482741236553D-01  2.9227455436207D-01
    23  2.2000000000000D-01  3.0287709242767D-01  2.9546484539136D-01
    24  2.3000000000000D-01  3.2145590031214D-01  2.9736535427270D-01
    25  2.4000000000000D-01  3.4056684835543D-01  2.9796221344705D-01
    26  2.5000000000000D-01  3.6021044575001D-01  2.9724681686790D-01
    27  2.6000000000000D-01  3.8038465394679D-01  2.9521589969634D-01
    28  2.7000000000000D-01  4.0108484979072D-01  2.9187160037951D-01
    29  2.8000000000000D-01  4.2230379660045D-01  2.8722150469858D-01
    30  2.9000000000000D-01  4.4403162338540D-01  2.8127867141730D-01
    31  3.0000000000000D-01  4.6625581237588D-01  2.7406163921014D-01
    32  3.1000000000000D-01  4.8896119502204D-01  2.6559441459904D-01
    33  3.2000000000000D-01  5.1212995659706D-01  2.5590644068056D-01
    34  3.3000000000000D-01  5.3574164951809D-01  2.4503254648034D-01
    35  3.4000000000000D-01  5.5977321547583D-01  2.3301287682919D-01
    36  3.5000000000000D-01  5.8419901643926D-01  2.1989280271471D-01
    37  3.6000000000000D-01  6.0899087457730D-01  2.0572281212435D-01
    38  3.7000000000000D-01  6.3411812111291D-01  1.9055838145910D-01
    39  3.8000000000000D-01  6.5954765409811D-01  1.7445982766329D-01
    40  3.9000000000000D-01  6.8524400507045D-01  1.5749214128218D-01
    41  4.0000000000000D-01  7.1116941452264D-01  1.3972480072860D-01
    42  4.1000000000000D-01  7.3728391608747D-01  1.2123156810886D-01
    43  4.2000000000000D-01  7.6354542930998D-01  1.0209026702945D-01
    44  4.3000000000000D-01  7.8990986084812D-01  8.2382542877163D-02
    45  4.4000000000000D-01  8.1633121391177D-01  6.2193606137224D-02
    46  4.5000000000000D-01  8.4276170571865D-01  4.1611959386019D-02
    47  4.6000000000000D-01  8.6915189271381D-01  2.0729108666579D-02
    48  4.7000000000000D-01  8.9545080326750D-01 -3.6073997349058D-04
    49  4.8000000000000D-01  9.2160607753478D-01 -2.1560997931879D-02
    50  4.9000000000000D-01  9.4756411412830D-01 -4.2773024570095D-02
    51  5.0000000000000D-01  9.7327022322493D-01 -6.3896469813903D-02
    52  5.1000000000000D-01  9.9866878569598D-01 -8.4829627783469D-02
    53  5.2000000000000D-01  1.0237034178210D+00 -1.0546980033732D-01
    54  5.3000000000000D-01  1.0483171411159D+00 -1.2571366935374D-01
    55  5.4000000000000D-01  1.0724525567783D+00 -1.4545767651555D-01
    56  5.5000000000000D-01  1.0960520242255D+00 -1.6459840930978D-01
    57  5.6000000000000D-01  1.1190578431756D+00 -1.8303299190356D-01
    58  5.7000000000000D-01  1.1414124386975D+00 -2.0065947951104D-01
    59  5.8000000000000D-01  1.1630585486338D+00 -2.1737725482428D-01
    60  5.9000000000000D-01  1.1839394127786D+00 -2.3308742504434D-01
    61  6.0000000000000D-01  1.2039989631757D+00 -2.4769321801662D-01
    62  6.1000000000000D-01  1.2231820148838D+00 -2.6110037594820D-01
    63  6.2000000000000D-01  1.2414344565419D+00 -2.7321754516464D-01
    64  6.3000000000000D-01  1.2587034400567D+00 -2.8395666034860D-01
    65  6.4000000000000D-01  1.2749375687243D+00 -2.9323332169466D-01
    66  6.5000000000000D-01  1.2900870830887D+00 -3.0096716341285D-01
    67  6.6000000000000D-01  1.3041040438414D+00 -3.0708221201805D-01
    68  6.7000000000000D-01  1.3169425110581D+00 -3.1150723285431D-01
    69  6.8000000000000D-01  1.3285587190755D+00 -3.1417606332180D-01
    70  6.9000000000000D-01  1.3389112463136D+00 -3.1502793129962D-01
    71  7.0000000000000D-01  1.3479611793547D+00 -3.1400775729074D-01
    72  7.1000000000000D-01  1.3556722706047D+00 -3.1106643885539D-01
    73  7.2000000000000D-01  1.3620110888724D+00 -3.0616111594616D-01
    74  7.3000000000000D-01  1.3669471622209D+00 -2.9925541581267D-01
    75  7.4000000000000D-01  1.3704531124654D+00 -2.9031967620456D-01
    76  7.5000000000000D-01  1.3725047807118D+00 -2.7933114566998D-01
    77  7.6000000000000D-01  1.3730813433607D+00 -2.6627415982158D-01
    78  7.7000000000000D-01  1.3721654180256D+00 -2.5114029252335D-01
    79  7.8000000000000D-01  1.3697431588491D+00 -2.3392848103924D-01
    80  7.9000000000000D-01  1.3658043407336D+00 -2.1464512427833D-01
    81  8.0000000000000D-01  1.3603424320404D+00 -1.9330415337046D-01
    82  8.1000000000000D-01  1.3533546553510D+00 -1.6992707391076D-01
    83  8.2000000000000D-01  1.3448420359267D+00 -1.4454297932140D-01
    84  8.3000000000000D-01  1.3348094375458D+00 -1.1718853489233D-01
    85  8.4000000000000D-01  1.3232655854461D+00 -8.7907932181271D-02
    86  8.5000000000000D-01  1.3102230761458D+00 -5.6752813574509D-02
    87  8.6000000000000D-01  1.2956983739702D+00 -2.3782166934597D-02
    88  8.7000000000000D-01  1.2797117941577D+00  1.0937809611866D-02
    89  8.8000000000000D-01  1.2622874724779D+00  4.7333872564312D-02
    90  8.9000000000000D-01  1.2434533213419D+00  8.5325927304042D-02
    91  9.0000000000000D-01  1.2232409724446D+00  1.2482725127264D-01
    92  9.1000000000000D-01  1.2016857060331D+00  1.6574474549911D-01
    93  9.2000000000000D-01  1.1788263669481D+00  2.0797921377130D-01
    94  9.3000000000000D-01  1.1547052676451D+00  2.5142566861827D-01
    95  9.4000000000000D-01  1.1293680784549D+00  2.9597366314294D-01
    96  9.5000000000000D-01  1.1028637053987D+00  3.4150764761961D-01
    97  9.6000000000000D-01  1.0752441559276D+00  3.8790734964943D-01
    98  9.7000000000000D-01  1.0465643930106D+00  4.3504817654937D-01
    99  9.8000000000000D-01  1.0168821780437D+00  4.8280163853682D-01
   100  9.9000000000000D-01  9.8625790310848D-01  5.3103579116325D-01
   101  1.0000000000000D+00  9.5475441315306D-01  5.7961569534944D-01
   102  1.0100000000000D+00  9.2243681871566D-01  6.2840389327731D-01
   103  1.0200000000000D+00  8.8937229985776D-01  6.7726089830392D-01
   104  1.0300000000000D+00  8.5562990201281D-01  7.2604569698184D-01
   105  1.0400000000000D+00  8.2128032449698D-01  7.7461626119612D-01
   106  1.0500000000000D+00  7.8639570246455D-01  8.2283006836111D-01
   107  1.0600000000000D+00  7.5104938312254D-01  8.7054462756526D-01
   108  1.0700000000000D+00  7.1531569704911D-01  9.1761800950323D-01
   109  1.0800000000000D+00  6.7926972548713D-01  9.6390937799518D-01
   110  1.0900000000000D+00  6.4298706450512D-01  1.0092795208666D+00
   111  1.1000000000000D+00  6.0654358693730D-01  1.0535913779426D+00
   112  1.1100000000000D+00  5.7001520302772D-01  1.0967105639040D+00
   113  1.1200000000000D+00  5.3347762071511D-01  1.1385058837511D+00
   114  1.1300000000000D+00  4.9700610650091D-01  1.1788498386375D+00
   115  1.1400000000000D+00  4.6067524784411D-01  1.2176191198615D+00
   116  1.1500000000000D+00  4.2455871802470D-01  1.2546950888313D+00
   117  1.1600000000000D+00  3.8872904441239D-01  1.2899642408664D+00
   118  1.1700000000000D+00  3.5325738106466D-01  1.3233186507546D+00
   119  1.1800000000000D+00  3.1821328656103D-01  1.3546563980590D+00
   120  1.1900000000000D+00  2.8366450796816D-01  1.3838819702168D+00
   121  1.2000000000000D+00  2.4967677180070D-01  1.4109066415837D+00
   122  1.2100000000000D+00  2.1631358281561D-01  1.4356488266674D+00
   123  1.2200000000000D+00  1.8363603144631D-01  1.4580344058966D+00
   124  1.2300000000000D+00  1.5170261065825D-01  1.4779970223546D+00
   125  1.2400000000000D+00  1.2056904295097D-01  1.4954783480792D+00
   126  1.2500000000000D+00  9.0288118191383D-02  1.5104283186504D+00
   127  1.2600000000000D+00  6.0909542947677D-02  1.5228053348372D+00
   128  1.2700000000000D+00  3.2479801901177D-02  1.5325764303394D+00
   129  1.2800000000000D+00  5.0420318713069D-03  1.5397174047789D+00
   130  1.2900000000000D+00 -2.1364091015326D-02  1.5442129211092D+00
   131  1.3000000000000D+00 -4.6702450612859D-02  1.5460565669778D+00
   132  1.3100000000000D+00 -7.0940576130328D-02  1.5452508796492D+00
   133  1.3200000000000D+00 -9.4049713227567D-02  1.5418073341158D+00
   134  1.3300000000000D+00 -1.1600488063399D-01  1.5357462944666D+00
   135  1.3400000000000D+00 -1.3678491208393D-01  1.5270969285571D+00
   136  1.3500000000000D+00 -1.5637248340315D-01  1.5158970861374D+00
   137  1.3600000000000D+00 -1.7475412475530D-01  1.5021931410393D+00
   138  1.3700000000000D+00 -1.9192021799187D-01  1.4860397978544D+00
   139  1.3800000000000D+00 -2.0786497917960D-01  1.4674998638701D+00
   140  1.3900000000000D+00 -2.2258642650541D-01  1.4466439873319D+00
   141  1.4000000000000D+00 -2.3608633363152D-01  1.4235503627953D+00
   142  1.4100000000000D+00 -2.4837016888175D-01  1.3983044050780D+00
   143  1.4200000000000D+00 -2.5944702051581D-01  1.3709983930097D+00
   144  1.4300000000000D+00 -2.6932950844758D-01  1.3417310844347D+00
   145  1.4400000000000D+00 -2.7803368295190D-01  1.3106073043287D+00
   146  1.4500000000000D+00 -2.8557891069472D-01  1.2777375074357D+00
   147  1.4600000000000D+00 -2.9198774879018D-01  1.2432373176436D+00
   148  1.4700000000000D+00 -2.9728580737577D-01  1.2072270458399D+00
   149  1.4800000000000D+00 -3.0150160138099D-01  1.1698311884073D+00
   150  1.4900000000000D+00 -3.0466639222140D-01  1.1311779085918D+00
   151  1.5000000000000D+00 -3.0681402004336D-01  1.0913985028110D+00
   152  1.5100000000000D+00 -3.0798072742722D-01  1.0506268544523D+00
   153  1.5200000000000D+00 -3.0820497519907D-01  1.0089988772869D+00
   154  1.5300000000000D+00 -3.0752725131166D-01  9.6665195112083D-01
   155  1.5400000000000D+00 -3.0598987355235D-01  9.2372435197846D-01
   156  1.5500000000000D+00 -3.0363678701363D-01  8.8035467939401D-01
   157  1.5600000000000D+00 -3.0051335718701D-01  8.3668128320014D-01
   158  1.5700000000000D+00 -2.9666615960047D-01  7.9284169239792D-01
   159  1.5800000000000D+00 -2.9214276689987D-01  7.4897204840687D-01
   160  1.5900000000000D+00 -2.8699153431432D-01  7.0520654538589D-01
   161  1.6000000000000D+00 -2.8126138437340D-01  6.6167687964216D-01
   162  1.6100000000000D+00 -2.7500159187010D-01  6.1851171100365D-01
   163  1.6200000000000D+00 -2.6826156984523D-01  5.7583613776371D-01
   164  1.6300000000000D+00 -2.6109065764877D-01  5.3377118822539D-01
   165  1.6400000000000D+00 -2.5353791174203D-01  4.9243333006456D-01
   166  1.6500000000000D+00 -2.4565190032487D-01  4.5193400053576D-01
   167  1.6600000000000D+00 -2.3748050234656D-01  4.1237915842175D-01
   168  1.6700000000000D+00 -2.2907071198165D-01  3.7386886064287D-01
   169  1.6800000000000D+00 -2.2046844901451D-01  3.3649686408681D-01
   170  1.6900000000000D+00 -2.1171837620137D-01  3.0035025545543D-01
   171  1.7000000000000D+00 -2.0286372391219D-01  2.6550910926940D-01
   172  1.7100000000000D+00 -1.9394612311837D-01  2.3204617675315D-01
   173  1.7200000000000D+00 -1.8500544684411D-01  2.0002660519590D-01
   174  1.7300000000000D+00 -1.7607966117549D-01  1.6950769053946D-01
   175  1.7400000000000D+00 -1.6720468552418D-01  1.4053866148148D-01
   176  1.7500000000000D+00 -1.5841426338937D-01  1.1316049826200D-01
   177  1.7600000000000D+00 -1.4973984733146D-01  8.7405798214915D-02
   178  1.7700000000000D+00 -1.4121047514155D-01  6.3298610448650D-02
   179  1.7800000000000D+00 -1.3285272016442D-01  4.0854509421551D-02
   180  1.7900000000000D+00 -1.2469056183017D-01  2.0080417458269D-02
   181  1.8000000000000D+00 -1.1674523040585D-01  9.7430523825532D-04
   182  1.8100000000000D+00 -1.0903535720713D-01 -1.6474059944484D-02
   183  1.8200000000000D+00 -1.0157707169677D-01 -3.2282536846064D-02
   184  1.8300000000000D+00 -9.4384141184572D-02 -4.6476001558824D-02
   185  1.8400000000000D+00 -8.7468206931665D-02 -5.9085430427470D-02
   186  1.8500000000000D+00 -8.0838862293020D-02 -7.0147532205026D-02
   187  1.8600000000000D+00 -7.4503645994814D-02 -7.9704697255201D-02
   188  1.8700000000000D+00 -6.8468099438345D-02 -8.7804733454639D-02
   189  1.8800000000000D+00 -6.2735861981662D-02 -9.4500460666731D-02
   190  1.8900000000000D+00 -5.7308736456770D-02 -9.9849425656122D-02
   191  1.9000000000000D+00 -5.2186780376833D-02 -1.0391353086578D-01
   192  1.9100000000000D+00 -4.7368397142739D-02 -1.0675866936794D-01
   193  1.9200000000000D+00 -4.2850435125961D-02 -1.0845433848706D-01
   194  1.9300000000000D+00 -3.8628291949692D-02 -1.0907324059595D-01
   195  1.9400000000000D+00 -3.4696023998966D-02 -1.0869087132220D-01
   196  1.9500000000000D+00 -3.1046460192279D-02 -1.0738509796525D-01
   197  1.9600000000000D+00 -2.7671319405813D-02 -1.0523573005140D-01
   198  1.9700000000000D+00 -2.4561331037826D-02 -1.0232408370949D-01
   199  1.9800000000000D+00 -2.1706357772330D-02 -9.8732542478424D-02
   200  1.9900000000000D+00 -1.9095520089584D-02 -9.4544116286962D-02
   201  2.0000000000000D+00 -1.6717321709285D-02 -8.9842000681561D-02
   202  2.0100000000000D+00 -1.4559775233615D-02 -8.4709138824619D-02
   203  2.0200000000000D+00 -1.2610527412995D-02 -7.9227787811450D-02
   204  2.0300000000000D+00 -1.0856983299165D-02 -7.3479091530399D-02
   205  2.0400000000000D+00 -9.2864283965959D-03 -6.7542662836969D-02
   206  2.0500000000000D+00 -7.8861487478908D-03 -6.1496174996771D-02
   207  2.0600000000000D+00 -6.6435473433702D-03 -5.5414967448740D-02
   208  2.0700000000000D+00 -5.5462572556256D-03 -4.9371664457371D-02
   209  2.0800000000000D+00 -4.5822501968453D-03 -4.3435810625370D-02
   210  2.0900000000000D+00 -3.7399398724146D-03 -3.7673525106992D-02
   211  2.1000000000000D+00 -3.0082806045047D-03 -3.2147173013088D-02
   212  2.1100000000000D+00 -2.3768588084859D-03 -2.6915061270178D-02
   213  2.1200000000000D+00 -1.8359789503019D-03 -2.2031153988316D-02
   214  2.1300000000000D+00 -1.3767442570628D-03 -1.7544914171776D-02
   215  2.1400000000000D+00 -9.9121472463836D-04 -1.3505046419560D-02
   216  2.1500000000000D+00 -6.7207514405735D-04 -9.9412355571034D-03
   217  2.1600000000000D+00 -4.1338343006782D-04 -6.8762038466847D-03
   218  2.1700000000000D+00 -2.1003837433171D-04 -4.3569732880519D-03
   219  2.1800000000000D+00 -5.7802467021741D-05 -2.4484913357813D-03
   220  2.1900000000000D+00  4.9074425839943D-05 -1.1913248269293D-03
   221  2.2000000000000D+00  1.0596315211146D-04 -4.6880722918575D-04
   222  2.2100000000000D+00  1.1031237283711D-04 -1.2535966323378D-04
   223  2.2200000000000D+00  6.9188563632514D-05 -6.0381080957575D-07
   224  2.2300000000000D+00  1.7246681231373D-05  8.4196848159046D-06
   225  2.2400000000000D+00 -1.1685669523309D-05 -8.2221593137064D-06
   226  2.2500000000000D+00 -1.2835920657305D-05 -1.1729773546327D-05
   227  2.2600000000000D+00 -9.6341279540730D-07 -1.0195981768275D-06
   228  2.2700000000000D+00  2.9985949264037D-06  1.1302169409669D-06
   229  2.2800000000000D+00  2.3594274776899D-06  1.0834829960870D-06
   230  2.2900000000000D+00 -9.3920160549036D-08  1.5440875686432D-07
   231  2.3000000000000D+00 -3.2636855991313D-07  5.3656385722929D-07
   232  2.3100000000000D+00 -1.7646406881221D-07  2.9011446889815D-07
   233  2.3200000000000D+00  0.0000000000000D+00  0.0000000000000D+00
   234  2.3300000000000D+00  0.0000000000000D+00  0.0000000000000D+00
   235  2.3400000000000D+00  0.0000000000000D+00  0.0000000000000D+00
   236  2.3500000000000D+00  0.0000000000000D+00  0.0000000000000D+00
   237  2.3600000000000D+00  0.0000000000000D+00  0.0000000000000D+00
   238  2.3700000000000D+00  0.0000000000000D+00  0.0000000000000D+00
   239  2.3800000000000D+00  0.0000000000000D+00  0.0000000000000D+00
   240  2.3900000000000D+00  0.0000000000000D+00  0.0000000000000D+00
   241  2.4000000000000D+00  0.0000000000000D+00  0.0000000000000D+00
   242  2.4100000000000D+00  0.0000000000000D+00  0.0000000000000D+00
   243  2.4200000000000D+00  0.0000000000000D+00  0.0000000000000D+00
   244  2.4300000000000D+00  0.0000000000000D+00  0.0000000000000D+00
   245  2.4400000000000D+00  0.0000000000000D+00  0.0000000000000D+00
   246  2.4500000000000D+00  0.0000000000000D+00  0.0000000000000D+00
   247  2.4600000000000D+00  0.0000000000000D+00  0.0000000000000D+00
   248  2.4700000000000D+00  0.0000000000000D+00  0.0000000000000D+00
   249  2.4800000000000D+00  0.0000000000000D+00  0.0000000000000D+00
   250  2.4900000000000D+00  0.0000000000000D+00  0.0000000000000D+00
   251  2.5000000000000D+00  0.0000000000000D+00  0.0000000000000D+00
   252  2.5100000000000D+00  0.0000000000000D+00  0.0000000000000D+00
   253  2.5200000000000D+00  0.0000000000000D+00  0.0000000000000D+00
   254  2.5300000000000D+00  0.0000000000000D+00  0.0000000000000D+00
   255  2.5400000000000D+00  0.0000000000000D+00  0.0000000000000D+00
   256  2.5500000000000D+00  0.0000000000000D+00  0.0000000000000D+00
   257  2.5600000000000D+00  0.0000000000000D+00  0.0000000000000D+00
   258  2.5700000000000D+00  0.0000000000000D+00  0.0000000000000D+00
   259  2.5800000000000D+00  0.0000000000000D+00  0.0000000000000D+00
   260  2.5900000000000D+00  0.0000000000000D+00  0.0000000000000D+00
   261  2.6000000000000D+00  0.0000000000000D+00  0.0000000000000D+00
   262  2.6100000000000D+00  0.0000000000000D+00  0.0000000000000D+00
   263  2.6200000000000D+00  0.0000000000000D+00  0.0000000000000D+00
   264  2.6300000000000D+00  0.0000000000000D+00  0.0000000000000D+00
   265  2.6400000000000D+00  0.0000000000000D+00  0.0000000000000D+00
   266  2.6500000000000D+00  0.0000000000000D+00  0.0000000000000D+00
   267  2.6600000000000D+00  0.0000000000000D+00  0.0000000000000D+00
   268  2.6700000000000D+00  0.0000000000000D+00  0.0000000000000D+00
   269  2.6800000000000D+00  0.0000000000000D+00  0.0000000000000D+00
   270  2.6900000000000D+00  0.0000000000000D+00  0.0000000000000D+00
   271  2.7000000000000D+00  0.0000000000000D+00  0.0000000000000D+00
   272  2.7100000000000D+00  0.0000000000000D+00  0.0000000000000D+00
   273  2.7200000000000D+00  0.0000000000000D+00  0.0000000000000D+00
   274  2.7300000000000D+00  0.0000000000000D+00  0.0000000000000D+00
   275  2.7400000000000D+00  0.0000000000000D+00  0.0000000000000D+00
   276  2.7500000000000D+00  0.0000000000000D+00  0.0000000000000D+00
   277  2.7600000000000D+00  0.0000000000000D+00  0.0000000000000D+00
   278  2.7700000000000D+00  0.0000000000000D+00  0.0000000000000D+00
   279  2.7800000000000D+00  0.0000000000000D+00  0.0000000000000D+00
   280  2.7900000000000D+00  0.0000000000000D+00  0.0000000000000D+00
   281  2.8000000000000D+00  0.0000000000000D+00  0.0000000000000D+00
   282  2.8100000000000D+00  0.0000000000000D+00  0.0000000000000D+00
   283  2.8200000000000D+00  0.0000000000000D+00  0.0000000000000D+00
   284  2.8300000000000D+00  0.0000000000000D+00  0.0000000000000D+00
   285  2.8400000000000D+00  0.0000000000000D+00  0.0000000000000D+00
   286  2.8500000000000D+00  0.0000000000000D+00  0.0000000000000D+00
   287  2.8600000000000D+00  0.0000000000000D+00  0.0000000000000D+00
   288  2.8700000000000D+00  0.0000000000000D+00  0.0000000000000D+00
   289  2.8800000000000D+00  0.0000000000000D+00  0.0000000000000D+00
   290  2.8900000000000D+00  0.0000000000000D+00  0.0000000000000D+00
   291  2.9000000000000D+00  0.0000000000000D+00  0.0000000000000D+00
   292  2.9100000000000D+00  0.0000000000000D+00  0.0000000000000D+00
   293  2.9200000000000D+00  0.0000000000000D+00  0.0000000000000D+00
   294  2.9300000000000D+00  0.0000000000000D+00  0.0000000000000D+00
   295  2.9400000000000D+00  0.0000000000000D+00  0.0000000000000D+00
   296  2.9500000000000D+00  0.0000000000000D+00  0.0000000000000D+00
   297  2.9600000000000D+00  0.0000000000000D+00  0.0000000000000D+00
   298  2.9700000000000D+00  0.0000000000000D+00  0.0000000000000D+00
   299  2.9800000000000D+00  0.0000000000000D+00  0.0000000000000D+00
   300  2.9900000000000D+00  0.0000000000000D+00  0.0000000000000D+00
   301  3.0000000000000D+00  0.0000000000000D+00  0.0000000000000D+00
   302  3.0100000000000D+00  0.0000000000000D+00  0.0000000000000D+00
   303  3.0200000000000D+00  0.0000000000000D+00  0.0000000000000D+00
   304  3.0300000000000D+00  0.0000000000000D+00  0.0000000000000D+00
   305  3.0400000000000D+00  0.0000000000000D+00  0.0000000000000D+00
   306  3.0500000000000D+00  0.0000000000000D+00  0.0000000000000D+00
   307  3.0600000000000D+00  0.0000000000000D+00  0.0000000000000D+00
   308  3.0700000000000D+00  0.0000000000000D+00  0.0000000000000D+00
   309  3.0800000000000D+00  0.0000000000000D+00  0.0000000000000D+00
   310  3.0900000000000D+00  0.0000000000000D+00  0.0000000000000D+00
   311  3.1000000000000D+00  0.0000000000000D+00  0.0000000000000D+00
   312  3.1100000000000D+00  0.0000000000000D+00  0.0000000000000D+00
   313  3.1200000000000D+00  0.0000000000000D+00  0.0000000000000D+00
   314  3.1300000000000D+00  0.0000000000000D+00  0.0000000000000D+00
   315  3.1400000000000D+00  0.0000000000000D+00  0.0000000000000D+00
   316  3.1500000000000D+00  0.0000000000000D+00  0.0000000000000D+00
   317  3.1600000000000D+00  0.0000000000000D+00  0.0000000000000D+00
   318  3.1700000000000D+00  0.0000000000000D+00  0.0000000000000D+00
   319  3.1800000000000D+00  0.0000000000000D+00  0.0000000000000D+00
   320  3.1900000000000D+00  0.0000000000000D+00  0.0000000000000D+00
   321  3.2000000000000D+00  0.0000000000000D+00  0.0000000000000D+00
   322  3.2100000000000D+00  0.0000000000000D+00  0.0000000000000D+00
   323  3.2200000000000D+00  0.0000000000000D+00  0.0000000000000D+00
   324  3.2300000000000D+00  0.0000000000000D+00  0.0000000000000D+00
   325  3.2400000000000D+00  0.0000000000000D+00  0.0000000000000D+00
   326  3.2500000000000D+00  0.0000000000000D+00  0.0000000000000D+00
   327  3.2600000000000D+00  0.0000000000000D+00  0.0000000000000D+00
   328  3.2700000000000D+00  0.0000000000000D+00  0.0000000000000D+00
   329  3.2800000000000D+00  0.0000000000000D+00  0.0000000000000D+00
   330  3.2900000000000D+00  0.0000000000000D+00  0.0000000000000D+00
   331  3.3000000000000D+00  0.0000000000000D+00  0.0000000000000D+00
   332  3.3100000000000D+00  0.0000000000000D+00  0.0000000000000D+00
   333  3.3200000000000D+00  0.0000000000000D+00  0.0000000000000D+00
   334  3.3300000000000D+00  0.0000000000000D+00  0.0000000000000D+00
   335  3.3400000000000D+00  0.0000000000000D+00  0.0000000000000D+00
   336  3.3500000000000D+00  0.0000000000000D+00  0.0000000000000D+00
   337  3.3600000000000D+00  0.0000000000000D+00  0.0000000000000D+00
   338  3.3700000000000D+00  0.0000000000000D+00  0.0000000000000D+00
   339  3.3800000000000D+00  0.0000000000000D+00  0.0000000000000D+00
   340  3.3900000000000D+00  0.0000000000000D+00  0.0000000000000D+00
   341  3.4000000000000D+00  0.0000000000000D+00  0.0000000000000D+00
   342  3.4100000000000D+00  0.0000000000000D+00  0.0000000000000D+00
   343  3.4200000000000D+00  0.0000000000000D+00  0.0000000000000D+00
   344  3.4300000000000D+00  0.0000000000000D+00  0.0000000000000D+00
   345  3.4400000000000D+00  0.0000000000000D+00  0.0000000000000D+00
   346  3.4500000000000D+00  0.0000000000000D+00  0.0000000000000D+00
   347  3.4600000000000D+00  0.0000000000000D+00  0.0000000000000D+00
   348  3.4700000000000D+00  0.0000000000000D+00  0.0000000000000D+00
   349  3.4800000000000D+00  0.0000000000000D+00  0.0000000000000D+00
   350  3.4900000000000D+00  0.0000000000000D+00  0.0000000000000D+00
   351  3.5000000000000D+00  0.0000000000000D+00  0.0000000000000D+00
   352  3.5100000000000D+00  0.0000000000000D+00  0.0000000000000D+00
   353  3.5200000000000D+00  0.0000000000000D+00  0.0000000000000D+00
   354  3.5300000000000D+00  0.0000000000000D+00  0.0000000000000D+00
   355  3.5400000000000D+00  0.0000000000000D+00  0.0000000000000D+00
   356  3.5500000000000D+00  0.0000000000000D+00  0.0000000000000D+00
   357  3.5600000000000D+00  0.0000000000000D+00  0.0000000000000D+00
   358  3.5700000000000D+00  0.0000000000000D+00  0.0000000000000D+00
   359  3.5800000000000D+00  0.0000000000000D+00  0.0000000000000D+00
   360  3.5900000000000D+00  0.0000000000000D+00  0.0000000000000D+00
   361  3.6000000000000D+00  0.0000000000000D+00  0.0000000000000D+00
   362  3.6100000000000D+00  0.0000000000000D+00  0.0000000000000D+00
   363  3.6200000000000D+00  0.0000000000000D+00  0.0000000000000D+00
   364  3.6300000000000D+00  0.0000000000000D+00  0.0000000000000D+00
   365  3.6400000000000D+00  0.0000000000000D+00  0.0000000000000D+00
   366  3.6500000000000D+00  0.0000000000000D+00  0.0000000000000D+00
   367  3.6600000000000D+00  0.0000000000000D+00  0.0000000000000D+00
   368  3.6700000000000D+00  0.0000000000000D+00  0.0000000000000D+00
   369  3.6800000000000D+00  0.0000000000000D+00  0.0000000000000D+00
   370  3.6900000000000D+00  0.0000000000000D+00  0.0000000000000D+00
   371  3.7000000000000D+00  0.0000000000000D+00  0.0000000000000D+00
   372  3.7100000000000D+00  0.0000000000000D+00  0.0000000000000D+00
   373  3.7200000000000D+00  0.0000000000000D+00  0.0000000000000D+00
   374  3.7300000000000D+00  0.0000000000000D+00  0.0000000000000D+00
   375  3.7400000000000D+00  0.0000000000000D+00  0.0000000000000D+00
   376  3.7500000000000D+00  0.0000000000000D+00  0.0000000000000D+00
   377  3.7600000000000D+00  0.0000000000000D+00  0.0000000000000D+00
   378  3.7700000000000D+00  0.0000000000000D+00  0.0000000000000D+00
   379  3.7800000000000D+00  0.0000000000000D+00  0.0000000000000D+00
   380  3.7900000000000D+00  0.0000000000000D+00  0.0000000000000D+00
   381  3.8000000000000D+00  0.0000000000000D+00  0.0000000000000D+00
   382  3.8100000000000D+00  0.0000000000000D+00  0.0000000000000D+00
   383  3.8200000000000D+00  0.0000000000000D+00  0.0000000000000D+00
   384  3.8300000000000D+00  0.0000000000000D+00  0.0000000000000D+00
   385  3.8400000000000D+00  0.0000000000000D+00  0.0000000000000D+00
   386  3.8500000000000D+00  0.0000000000000D+00  0.0000000000000D+00
   387  3.8600000000000D+00  0.0000000000000D+00  0.0000000000000D+00
   388  3.8700000000000D+00  0.0000000000000D+00  0.0000000000000D+00
   389  3.8800000000000D+00  0.0000000000000D+00  0.0000000000000D+00
   390  3.8900000000000D+00  0.0000000000000D+00  0.0000000000000D+00
   391  3.9000000000000D+00  0.0000000000000D+00  0.0000000000000D+00
   392  3.9100000000000D+00  0.0000000000000D+00  0.0000000000000D+00
   393  3.9200000000000D+00  0.0000000000000D+00  0.0000000000000D+00
   394  3.9300000000000D+00  0.0000000000000D+00  0.0000000000000D+00
   395  3.9400000000000D+00  0.0000000000000D+00  0.0000000000000D+00
   396  3.9500000000000D+00  0.0000000000000D+00  0.0000000000000D+00
   397  3.9600000000000D+00  0.0000000000000D+00  0.0000000000000D+00
   398  3.9700000000000D+00  0.0000000000000D+00  0.0000000000000D+00
   399  3.9800000000000D+00  0.0000000000000D+00  0.0000000000000D+00
   400  3.9900000000000D+00  0.0000000000000D+00  0.0000000000000D+00
   401  4.0000000000000D+00  0.0000000000000D+00  0.0000000000000D+00
   402  4.0100000000000D+00  0.0000000000000D+00  0.0000000000000D+00
   403  4.0200000000000D+00  0.0000000000000D+00  0.0000000000000D+00
   404  4.0300000000000D+00  0.0000000000000D+00  0.0000000000000D+00
   405  4.0400000000000D+00  0.0000000000000D+00  0.0000000000000D+00
   406  4.0500000000000D+00  0.0000000000000D+00  0.0000000000000D+00
   407  4.0600000000000D+00  0.0000000000000D+00  0.0000000000000D+00
   408  4.0700000000000D+00  0.0000000000000D+00  0.0000000000000D+00
   409  4.0800000000000D+00  0.0000000000000D+00  0.0000000000000D+00
   410  4.0900000000000D+00  0.0000000000000D+00  0.0000000000000D+00
   411  4.1000000000000D+00  0.0000000000000D+00  0.0000000000000D+00
   412  4.1100000000000D+00  0.0000000000000D+00  0.0000000000000D+00
   413  4.1200000000000D+00  0.0000000000000D+00  0.0000000000000D+00
   414  4.1300000000000D+00  0.0000000000000D+00  0.0000000000000D+00
   415  4.1400000000000D+00  0.0000000000000D+00  0.0000000000000D+00
   416  4.1500000000000D+00  0.0000000000000D+00  0.0000000000000D+00
   417  4.1600000000000D+00  0.0000000000000D+00  0.0000000000000D+00
   418  4.1700000000000D+00  0.0000000000000D+00  0.0000000000000D+00
   419  4.1800000000000D+00  0.0000000000000D+00  0.0000000000000D+00
   420  4.1900000000000D+00  0.0000000000000D+00  0.0000000000000D+00
   421  4.2000000000000D+00  0.0000000000000D+00  0.0000000000000D+00
   422  4.2100000000000D+00  0.0000000000000D+00  0.0000000000000D+00