Rn    ONCVPSP-3.3.0  r_core=   2.42844   2.10456   2.86982
     86.0000      8.0000      220117    zatom,zion,pspd
     8      11   2     4   600     0    pspcod,pspxc,lmax,lloc,mmax,r2well
  5.99000000  0.00000000  0.00000000    rchrg fchrg qchrg
     2     2     2     0     0    nproj
     1     1           extension_switch
   0                         5.8256380228107D+00  6.5207232702198D-01
     1  0.0000000000000D+00  2.2319368575552D-12 -5.5864653181192D-12
     2  1.0000000000000D-02  2.0372653941187D-02  4.0157338344481D-03
     3  2.0000000000000D-02  4.0752121673917D-02  7.9969924848864D-03
     4  3.0000000000000D-02  6.1145158006559D-02  1.1909449797820D-02
     5  4.0000000000000D-02  8.1558399979475D-02  1.5719077189141D-02
     6  5.0000000000000D-02  1.0199830847631D-01  1.9392291201099D-02
     7  6.0000000000000D-02  1.2247111042808D-01  2.2896099589928D-02
     8  7.0000000000000D-02  1.4298274180504D-01  2.6198245460795D-02
     9  8.0000000000000D-02  1.6353879158908D-01  2.9267348972378D-02
    10  9.0000000000000D-02  1.8414444691675D-01  3.2073046140165D-02
    11  1.0000000000000D-01  2.0480443957946D-01  3.4586124275954D-02
    12  1.1000000000000D-01  2.2552299406383D-01  3.6778653610512D-02
    13  1.2000000000000D-01  2.4630377731065D-01  3.8624114657313D-02
    14  1.3000000000000D-01  2.6714985036600D-01  4.0097520887404D-02
    15  1.4000000000000D-01  2.8806362209286D-01  4.1175536298905D-02
    16  1.5000000000000D-01  3.0904680510556D-01  4.1836587479315D-02
    17  1.6000000000000D-01  3.3010037408306D-01  4.2060969774580D-02
    18  1.7000000000000D-01  3.5122452661034D-01  4.1830947195952D-02
    19  1.8000000000000D-01  3.7241864668989D-01  4.1130845713737D-02
    20  1.9000000000000D-01  3.9368127105761D-01  3.9947139606198D-02
    21  2.0000000000000D-01  4.1501005842940D-01  3.8268530552126D-02
    22  2.1000000000000D-01  4.3640176179622D-01  3.6086019176776D-02
    23  2.2000000000000D-01  4.5785220387658D-01  3.3392968782931D-02
    24  2.3000000000000D-01  4.7935625582627D-01  3.0185161021882D-02
    25  2.4000000000000D-01  5.0090781929567D-01  2.6460843282931D-02
    26  2.5000000000000D-01  5.2249981191502D-01  2.2220767604548D-02
    27  2.6000000000000D-01  5.4412415627830D-01  1.7468220935567D-02
    28  2.7000000000000D-01  5.6577177248566D-01  1.2209046600759D-02
    29  2.8000000000000D-01  5.8743257429411D-01  6.4516568515250D-03
    30  2.9000000000000D-01  6.0909546891538D-01  2.0703640939888D-04
    31  3.0000000000000D-01  6.3074836048874D-01 -6.5112630624540D-03
    32  3.1000000000000D-01  6.5237815724603D-01 -1.3687137596978D-02
    33  3.2000000000000D-01  6.7397078237439D-01 -2.1301954679226D-02
    34  3.3000000000000D-01  6.9551118857152D-01 -2.9334586101500D-02
    35  3.4000000000000D-01  7.1698337627672D-01 -3.7761449870159D-02
    36  3.5000000000000D-01  7.3837041554972D-01 -4.6556561088103D-02
    37  3.6000000000000D-01  7.5965447155808D-01 -5.5691591708585D-02
    38  3.7000000000000D-01  7.8081683362285D-01 -6.5135939027703D-02
    39  3.8000000000000D-01  8.0183794776065D-01 -7.4856802754835D-02
    40  3.9000000000000D-01  8.2269745264980D-01 -8.4819270472338D-02
    41  4.0000000000000D-01  8.4337421893681D-01 -9.4986411268505D-02
    42  4.1000000000000D-01  8.6384639178901D-01 -1.0531937730049D-01
    43  4.2000000000000D-01  8.8409143658861D-01 -1.1577751301760D-01
    44  4.3000000000000D-01  9.0408618765310D-01 -1.2631847174922D-01
    45  4.4000000000000D-01  9.2380689985692D-01 -1.3689833933647D-01
    46  4.5000000000000D-01  9.4322930301965D-01 -1.4747176446209D-01
    47  4.6000000000000D-01  9.6232865891648D-01 -1.5799209530959D-01
    48  4.7000000000000D-01  9.8107982075788D-01 -1.6841152215959D-01
    49  4.8000000000000D-01  9.9945729497654D-01 -1.7868122550992D-01
    50  4.9000000000000D-01  1.0174353051515D+00 -1.8875152928507D-01
    51  5.0000000000000D-01  1.0349878578919D+00 -1.9857205868118D-01
    52  5.1000000000000D-01  1.0520888104943D+00 -2.0809190217445D-01
    53  5.2000000000000D-01  1.0687119401835D+00 -2.1725977720373D-01
    54  5.3000000000000D-01  1.0848310147358D+00 -2.2602419902246D-01
    55  5.4000000000000D-01  1.1004198642841D+00 -2.3433365220081D-01
    56  5.5000000000000D-01  1.1154524540920D+00 -2.4213676424609D-01
    57  5.6000000000000D-01  1.1299029580864D+00 -2.4938248079825D-01
    58  5.7000000000000D-01  1.1437458329291D+00 -2.5602024184769D-01
    59  5.8000000000000D-01  1.1569558924061D+00 -2.6200015841428D-01
    60  5.9000000000000D-01  1.1695083819122D+00 -2.6727318912063D-01
    61  6.0000000000000D-01  1.1813790528034D+00 -2.7179131608742D-01
    62  6.1000000000000D-01  1.1925442363914D+00 -2.7550771957614D-01
    63  6.2000000000000D-01  1.2029809173508D+00 -2.7837695080327D-01
    64  6.3000000000000D-01  1.2126668063119D+00 -2.8035510235076D-01
    65  6.4000000000000D-01  1.2215804114115D+00 -2.8139997559989D-01
    66  6.5000000000000D-01  1.2297011085760D+00 -2.8147124462044D-01
    67  6.6000000000000D-01  1.2370092103122D+00 -2.8053061595275D-01
    68  6.7000000000000D-01  1.2434860327856D+00 -2.7854198372876D-01
    69  6.8000000000000D-01  1.2491139609679D+00 -2.7547157958779D-01
    70  6.9000000000000D-01  1.2538765116407D+00 -2.7128811685455D-01
    71  7.0000000000000D-01  1.2577583940462D+00 -2.6596292846057D-01
    72  7.1000000000000D-01  1.2607455679826D+00 -2.5947009810553D-01
    73  7.2000000000000D-01  1.2628252991470D+00 -2.5178658417192D-01
    74  7.3000000000000D-01  1.2639862115349D+00 -2.4289233592583D-01
    75  7.4000000000000D-01  1.2642183367162D+00 -2.3277040155664D-01
    76  7.5000000000000D-01  1.2635131598111D+00 -2.2140702763096D-01
    77  7.6000000000000D-01  1.2618636620008D+00 -2.0879174955994D-01
    78  7.7000000000000D-01  1.2592643594181D+00 -1.9491747270443D-01
    79  7.8000000000000D-01  1.2557113382700D+00 -1.7978054376913D-01
    80  7.9000000000000D-01  1.2512022860571D+00 -1.6338081216524D-01
    81  8.0000000000000D-01  1.2457365187652D+00 -1.4572168105085D-01
    82  8.1000000000000D-01  1.2393150039143D+00 -1.2681014778865D-01
    83  8.2000000000000D-01  1.2319403793648D+00 -1.0665683359296D-01
    84  8.3000000000000D-01  1.2236169677901D+00 -8.5276002170780D-02
    85  8.4000000000000D-01  1.2143507867405D+00 -6.2685567195642D-02
    86  8.5000000000000D-01  1.2041495542320D+00 -3.8907088487950D-02
    87  8.6000000000000D-01  1.1930226898120D+00 -1.3965756810978D-02
    88  8.7000000000000D-01  1.1809813110634D+00  1.2109632772027D-02
    89  8.8000000000000D-01  1.1680382255244D+00  3.9286718997486D-02
    90  8.9000000000000D-01  1.1542079180141D+00  6.7529623938457D-02
    91  9.0000000000000D-01  1.1395065333686D+00  9.6799013922030D-02
    92  9.1000000000000D-01  1.1239518546077D+00  1.2705217173293D-01
    93  9.2000000000000D-01  1.1075632765628D+00  1.5824307997100D-01
    94  9.3000000000000D-01  1.0903617750152D+00  1.9032251539298D-01
    95  9.4000000000000D-01  1.0723698714052D+00  2.2323815403162D-01
    96  9.5000000000000D-01  1.0536115931867D+00  2.5693468684803D-01
    97  9.6000000000000D-01  1.0341124299173D+00  2.9135394563674D-01
    98  9.7000000000000D-01  1.0138992851867D+00  3.2643503886705D-01
    99  9.8000000000000D-01  9.9300042449821D-01  3.6211449710915D-01
   100  9.9000000000000D-01  9.7144541923414D-01  3.9832642765873D-01
   101  1.0000000000000D+00  9.4926508684670D-01  4.3500267794124D-01
   102  1.0100000000000D+00  9.2649142742839D-01  4.7207300724443D-01
   103  1.0200000000000D+00  9.0315755682911D-01  5.0946526629646D-01
   104  1.0300000000000D+00  8.7929763649761D-01  5.4710558417788D-01
   105  1.0400000000000D+00  8.5494680023635D-01  5.8491856202761D-01
   106  1.0500000000000D+00  8.3014107806954D-01  6.2282747297577D-01
   107  1.0600000000000D+00  8.0491731743341D-01  6.6075446771287D-01
   108  1.0700000000000D+00  7.7931310190755D-01  6.9862078508064D-01
   109  1.0800000000000D+00  7.5336666771447D-01  7.3634696704896D-01
   110  1.0900000000000D+00  7.2711681822265D-01  7.7385307742443D-01
   111  1.1000000000000D+00  7.0060283669540D-01  8.1105892361870D-01
   112  1.1100000000000D+00  6.7386439753401D-01  8.4788428079096D-01
   113  1.1200000000000D+00  6.4694147626969D-01  8.8424911766465D-01
   114  1.1300000000000D+00  6.1987425856368D-01  9.2007382330896D-01
   115  1.1400000000000D+00  5.9270304847857D-01  9.5527943416791D-01
   116  1.1500000000000D+00  5.6546817628706D-01  9.8978786061390D-01
   117  1.1600000000000D+00  5.3820990608702D-01  1.0235221122992D+00
   118  1.1700000000000D+00  5.1096834349297D-01  1.0564065215778D+00
   119  1.1800000000000D+00  4.8378334367433D-01  1.0883669642744D+00
   120  1.1900000000000D+00  4.5669442001092D-01  1.1193310770764D+00
   121  1.2000000000000D+00  4.2974065363494D-01  1.1492284708370D+00
   122  1.2100000000000D+00  4.0296060412595D-01  1.1779909390837D+00
   123  1.2200000000000D+00  3.7639222162246D-01  1.2055526610404D+00
   124  1.2300000000000D+00  3.5007276061146D-01  1.2318503984795D+00
   125  1.2400000000000D+00  3.2403869564984D-01  1.2568236857469D+00
   126  1.2500000000000D+00  2.9832563926626D-01  1.2804150123176D+00
   127  1.2600000000000D+00  2.7296826228997D-01  1.3025699972517D+00
   128  1.2700000000000D+00  2.4800021683963D-01  1.3232375549581D+00
   129  1.2800000000000D+00  2.2345406219772D-01  1.3423700517032D+00
   130  1.2900000000000D+00  1.9936119379590D-01  1.3599234522969D+00
   131  1.3000000000000D+00  1.7575177551480D-01  1.3758574564603D+00
   132  1.3100000000000D+00  1.5265467549516D-01  1.3901356243983D+00
   133  1.3200000000000D+00  1.3009740565750D-01  1.4027254910984D+00
   134  1.3300000000000D+00  1.0810606509606D-01  1.4135986689755D+00
   135  1.3400000000000D+00  8.6705287512873D-02  1.4227309384792D+00
   136  1.3500000000000D+00  6.5918192851576D-02  1.4301023262994D+00
   137  1.3600000000000D+00  4.5766343253097D-02  1.4356971709209D+00
   138  1.3700000000000D+00  2.6269703469032D-02  1.4395041752313D+00
   139  1.3800000000000D+00  7.4466058418313D-03  1.4415164459724D+00
   140  1.3900000000000D+00 -1.0686280070948D-02  1.4417315199122D+00
   141  1.4000000000000D+00 -2.8113973118677D-02  1.4401513765253D+00
   142  1.4100000000000D+00 -4.4823201391315D-02  1.4367824371852D+00
   143  1.4200000000000D+00 -6.0802418201862D-02  1.4316355507905D+00
   144  1.4300000000000D+00 -7.6041813175602D-02  1.4247259658084D+00
   145  1.4400000000000D+00 -9.0533318461073D-02  1.4160732888819D+00
   146  1.4500000000000D+00 -1.0427061001436D-01  1.4057014299655D+00
   147  1.4600000000000D+00 -1.1724910401763D-01  1.3936385342677D+00
   148  1.4700000000000D+00 -1.2946594843202D-01  1.3799169011034D+00
   149  1.4800000000000D+00 -1.4092000973595D-01  1.3645728899064D+00
   150  1.4900000000000D+00 -1.5161185493206D-01  1.3476468137388D+00
   151  1.5000000000000D+00 -1.6154372885347D-01  1.3291828204926D+00
   152  1.5100000000000D+00 -1.7071952692385D-01  1.3092287623181D+00
   153  1.5200000000000D+00 -1.7914476340878D-01  1.2878360534917D+00
   154  1.5300000000000D+00 -1.8682653534113D-01  1.2650595173390D+00
   155  1.5400000000000D+00 -1.9377348220889D-01  1.2409572225637D+00
   156  1.5500000000000D+00 -1.9999574157794D-01  1.2155903095690D+00
   157  1.5600000000000D+00 -2.0550490080647D-01  1.1890228073099D+00
   158  1.5700000000000D+00 -2.1031394500694D-01  1.1613214412156D+00
   159  1.5800000000000D+00 -2.1443720147448D-01  1.1325554328856D+00
   160  1.5900000000000D+00 -2.1789028072560D-01  1.1027962920697D+00
   161  1.6000000000000D+00 -2.2069001441633D-01  1.0721176017604D+00
   162  1.6100000000000D+00 -2.2285439028064D-01  1.0405947969063D+00
   163  1.6200000000000D+00 -2.2440248438972D-01  1.0083049376455D+00
   164  1.6300000000000D+00 -2.2535439088655D-01  9.7532647761017D-01
   165  1.6400000000000D+00 -2.2573114950347D-01  9.4173902820706D-01
   166  1.6500000000000D+00 -2.2555467104550D-01  9.0762311950063D-01
   167  1.6600000000000D+00 -2.2484766113928D-01  8.7305995857278D-01
   168  1.6700000000000D+00 -2.2363354245916D-01  8.3813118606038D-01
   169  1.6800000000000D+00 -2.2193637571979D-01  8.0291863170266D-01
   170  1.6900000000000D+00 -2.1978077966967D-01  7.6750406965994D-01
   171  1.7000000000000D+00 -2.1719185036195D-01  7.3196897438404D-01
   172  1.7100000000000D+00 -2.1419507995668D-01  6.9639427785371D-01
   173  1.7200000000000D+00 -2.1081627531152D-01  6.6086012888346D-01
   174  1.7300000000000D+00 -2.0708147663568D-01  6.2544565537626D-01
   175  1.7400000000000D+00 -2.0301687643418D-01  5.9022873012010D-01
   176  1.7500000000000D+00 -1.9864873904373D-01  5.5528574107993D-01
   177  1.7600000000000D+00 -1.9400332094093D-01  5.2069136662083D-01
   178  1.7700000000000D+00 -1.8910679216341D-01  4.8651835673971D-01
   179  1.7800000000000D+00 -1.8398515895583D-01  4.5283732050529D-01
   180  1.7900000000000D+00 -1.7866418803295D-01  4.1971652094766D-01
   181  1.8000000000000D+00 -1.7316933249772D-01  3.8722167735297D-01
   182  1.8100000000000D+00 -1.6752565983601D-01  3.5541577628478D-01
   183  1.8200000000000D+00 -1.6175778198588D-01  3.2435889116946D-01
   184  1.8300000000000D+00 -1.5588978788244D-01  2.9410801167430D-01
   185  1.8400000000000D+00 -1.4994517848534D-01  2.6471688276508D-01
   186  1.8500000000000D+00 -1.4394680461103D-01  2.3623585438942D-01
   187  1.8600000000000D+00 -1.3791680764422D-01  2.0871174190874D-01
   188  1.8700000000000D+00 -1.3187656330312D-01  1.8218769772820D-01
   189  1.8800000000000D+00 -1.2584662866944D-01  1.5670309469922D-01
   190  1.8900000000000D+00 -1.1984669243587D-01  1.3229342101994D-01
   191  1.9000000000000D+00 -1.1389552878214D-01  1.0899018785117D-01
   192  1.9100000000000D+00 -1.0801095457136D-01  8.6820848540866D-02
   193  1.9200000000000D+00 -1.0220979044319D-01  6.5808731191929D-02
   194  1.9300000000000D+00 -9.6507825392584D-02  4.5972983152096D-02
   195  1.9400000000000D+00 -9.0919785293003D-02  2.7328528770376D-02
   196  1.9500000000000D+00 -8.5459305161866D-02  9.8860396751308D-03
   197  1.9600000000000D+00 -8.0138905265132D-02 -6.3480822326617D-03
   198  1.9700000000000D+00 -7.4969971225221D-02 -2.1371708664511D-02
   199  1.9800000000000D+00 -6.9962737776572D-02 -3.5186976920822D-02
   200  1.9900000000000D+00 -6.5126276688579D-02 -4.7800268460715D-02
   201  2.0000000000000D+00 -6.0468488250003D-02 -5.9222176035052D-02
   202  2.0100000000000D+00 -5.5996096778767D-02 -6.9467458074372D-02
   203  2.0200000000000D+00 -5.1714649802046D-02 -7.8554981518320D-02
   204  2.0300000000000D+00 -4.7628520893947D-02 -8.6507653236520D-02
   205  2.0400000000000D+00 -4.3740914992383D-02 -9.3352345578835D-02
   206  2.0500000000000D+00 -4.0053883970164D-02 -9.9119780992689D-02
   207  2.0600000000000D+00 -3.6568326195073D-02 -1.0384449182749D-01
   208  2.0700000000000D+00 -3.3284026044990D-02 -1.0756461157162D-01
   209  2.0800000000000D+00 -3.0199668521340D-02 -1.1032177702877D-01
   210  2.0900000000000D+00 -2.7312853920434D-02 -1.1216102964791D-01
   211  2.1000000000000D+00 -2.4620030937761D-02 -1.1313110022328D-01
   212  2.1100000000000D+00 -2.2116715628362D-02 -1.1328341578846D-01
   213  2.1200000000000D+00 -1.9797588166877D-02 -1.1267164747064D-01
   214  2.1300000000000D+00 -1.7656630644202D-02 -1.1135111477226D-01
   215  2.1400000000000D+00 -1.5687241040334D-02 -1.0937832536246D-01
   216  2.1500000000000D+00 -1.3882483672528D-02 -1.0680990469260D-01
   217  2.1600000000000D+00 -1.2235041671597D-02 -1.0370285199598D-01
   218  2.1700000000000D+00 -1.0737279936903D-02 -1.0011432259278D-01
   219  2.1800000000000D+00 -9.3812939213602D-03 -9.6101468820995D-02
   220  2.1900000000000D+00 -8.1589960377082D-03 -9.1721103940328D-02
   221  2.2000000000000D+00 -7.0621599280723D-03 -8.7029564297200D-02
   222  2.2100000000000D+00 -6.0824845026561D-03 -8.2082480140870D-02
   223  2.2200000000000D+00 -5.2116518234819D-03 -7.6934574528546D-02
   224  2.2300000000000D+00 -4.4413842265995D-03 -7.1639465370300D-02
   225  2.2400000000000D+00 -3.7635003067056D-03 -6.6249471776978D-02
   226  2.2500000000000D+00 -3.1699697756600D-03 -6.0815424888022D-02
   227  2.2600000000000D+00 -2.6529664264284D-03 -5.5386485829885D-02
   228  2.2700000000000D+00 -2.2049192820587D-03 -5.0009970369498D-02
   229  2.2800000000000D+00 -1.8185616685048D-03 -4.4731181474886D-02
   230  2.2900000000000D+00 -1.4869783865422D-03 -3.9593248254921D-02
   231  2.3000000000000D+00 -1.2036504801527D-03 -3.4636973752967D-02
   232  2.3100000000000D+00 -9.6249800996159D-04 -2.9900689676359D-02
   233  2.3200000000000D+00 -7.5791859772244D-04 -2.5420126495128D-02
   234  2.3300000000000D+00 -5.8482385016779D-04 -2.1228290995367D-02
   235  2.3400000000000D+00 -4.3867294525841D-04 -1.7355353523536D-02
   236  2.3500000000000D+00 -3.1546644514620D-04 -1.3831572847235D-02
   237  2.3600000000000D+00 -2.1190409717857D-04 -1.0676588581364D-02
   238  2.3700000000000D+00 -1.2530601917679D-04 -7.9077352849412D-03
   239  2.3800000000000D+00 -5.4412581773332D-05 -5.5277758148981D-03
   240  2.3900000000000D+00  3.8038801639162D-06 -3.5900596161654D-03
   241  2.4000000000000D+00  5.0841526520179D-05 -2.1261082958817D-03
   242  2.4100000000000D+00  8.9636602756935D-05 -1.1608480952915D-03
   243  2.4200000000000D+00  1.0987345130596D-04 -5.7879790793906D-04
   244  2.4300000000000D+00  1.0506615707822D-04 -2.6541203787933D-04
   245  2.4400000000000D+00  7.0690230426934D-05 -9.5442855334654D-05
   246  2.4500000000000D+00  2.8039197285707D-05 -2.1535961164332D-05
   247  2.4600000000000D+00 -4.5304276788007D-06  2.3741931973309D-06
   248  2.4700000000000D+00 -1.2508524876540D-05  3.3518491166671D-06
   249  2.4800000000000D+00 -7.2202856864211D-06  6.3220977871627D-07
   250  2.4900000000000D+00  1.0234740936141D-06 -8.4864648734413D-07
   251  2.5000000000000D+00  2.7574302660543D-06 -2.0199220587642D-06
   252  2.5100000000000D+00  1.6905265618422D-06 -1.1040601138593D-06
   253  2.5200000000000D+00 -1.1216670302412D-07  3.1445402593089D-07
   254  2.5300000000000D+00 -3.0564482286884D-07  8.5686074801872D-07
   255  2.5400000000000D+00 -1.9736249285024D-07  5.5329637736763D-07
   256  2.5500000000000D+00  0.0000000000000D+00  0.0000000000000D+00
   257  2.5600000000000D+00  0.0000000000000D+00  0.0000000000000D+00
   258  2.5700000000000D+00  0.0000000000000D+00  0.0000000000000D+00
   259  2.5800000000000D+00  0.0000000000000D+00  0.0000000000000D+00
   260  2.5900000000000D+00  0.0000000000000D+00  0.0000000000000D+00
   261  2.6000000000000D+00  0.0000000000000D+00  0.0000000000000D+00
   262  2.6100000000000D+00  0.0000000000000D+00  0.0000000000000D+00
   263  2.6200000000000D+00  0.0000000000000D+00  0.0000000000000D+00
   264  2.6300000000000D+00  0.0000000000000D+00  0.0000000000000D+00
   265  2.6400000000000D+00  0.0000000000000D+00  0.0000000000000D+00
   266  2.6500000000000D+00  0.0000000000000D+00  0.0000000000000D+00
   267  2.6600000000000D+00  0.0000000000000D+00  0.0000000000000D+00
   268  2.6700000000000D+00  0.0000000000000D+00  0.0000000000000D+00
   269  2.6800000000000D+00  0.0000000000000D+00  0.0000000000000D+00
   270  2.6900000000000D+00  0.0000000000000D+00  0.0000000000000D+00
   271  2.7000000000000D+00  0.0000000000000D+00  0.0000000000000D+00
   272  2.7100000000000D+00  0.0000000000000D+00  0.0000000000000D+00
   273  2.7200000000000D+00  0.0000000000000D+00  0.0000000000000D+00
   274  2.7300000000000D+00  0.0000000000000D+00  0.0000000000000D+00
   275  2.7400000000000D+00  0.0000000000000D+00  0.0000000000000D+00
   276  2.7500000000000D+00  0.0000000000000D+00  0.0000000000000D+00
   277  2.7600000000000D+00  0.0000000000000D+00  0.0000000000000D+00
   278  2.7700000000000D+00  0.0000000000000D+00  0.0000000000000D+00
   279  2.7800000000000D+00  0.0000000000000D+00  0.0000000000000D+00
   280  2.7900000000000D+00  0.0000000000000D+00  0.0000000000000D+00
   281  2.8000000000000D+00  0.0000000000000D+00  0.0000000000000D+00
   282  2.8100000000000D+00  0.0000000000000D+00  0.0000000000000D+00
   283  2.8200000000000D+00  0.0000000000000D+00  0.0000000000000D+00
   284  2.8300000000000D+00  0.0000000000000D+00  0.0000000000000D+00
   285  2.8400000000000D+00  0.0000000000000D+00  0.0000000000000D+00
   286  2.8500000000000D+00  0.0000000000000D+00  0.0000000000000D+00
   287  2.8600000000000D+00  0.0000000000000D+00  0.0000000000000D+00
   288  2.8700000000000D+00  0.0000000000000D+00  0.0000000000000D+00
   289  2.8800000000000D+00  0.0000000000000D+00  0.0000000000000D+00
   290  2.8900000000000D+00  0.0000000000000D+00  0.0000000000000D+00
   291  2.9000000000000D+00  0.0000000000000D+00  0.0000000000000D+00
   292  2.9100000000000D+00  0.0000000000000D+00  0.0000000000000D+00
   293  2.9200000000000D+00  0.0000000000000D+00  0.0000000000000D+00
   294  2.9300000000000D+00  0.0000000000000D+00  0.0000000000000D+00
   295  2.9400000000000D+00  0.0000000000000D+00  0.0000000000000D+00
   296  2.9500000000000D+00  0.0000000000000D+00  0.0000000000000D+00
   297  2.9600000000000D+00  0.0000000000000D+00  0.0000000000000D+00
   298  2.9700000000000D+00  0.0000000000000D+00  0.0000000000000D+00
   299  2.9800000000000D+00  0.0000000000000D+00  0.0000000000000D+00
   300  2.9900000000000D+00  0.0000000000000D+00  0.0000000000000D+00
   301  3.0000000000000D+00  0.0000000000000D+00  0.0000000000000D+00
   302  3.0100000000000D+00  0.0000000000000D+00  0.0000000000000D+00
   303  3.0200000000000D+00  0.0000000000000D+00  0.0000000000000D+00
   304  3.0300000000000D+00  0.0000000000000D+00  0.0000000000000D+00
   305  3.0400000000000D+00  0.0000000000000D+00  0.0000000000000D+00
   306  3.0500000000000D+00  0.0000000000000D+00  0.0000000000000D+00
   307  3.0600000000000D+00  0.0000000000000D+00  0.0000000000000D+00
   308  3.0700000000000D+00  0.0000000000000D+00  0.0000000000000D+00
   309  3.0800000000000D+00  0.0000000000000D+00  0.0000000000000D+00
   310  3.0900000000000D+00  0.0000000000000D+00  0.0000000000000D+00
   311  3.1000000000000D+00  0.0000000000000D+00  0.0000000000000D+00
   312  3.1100000000000D+00  0.0000000000000D+00  0.0000000000000D+00
   313  3.1200000000000D+00  0.0000000000000D+00  0.0000000000000D+00
   314  3.1300000000000D+00  0.0000000000000D+00  0.0000000000000D+00
   315  3.1400000000000D+00  0.0000000000000D+00  0.0000000000000D+00
   316  3.1500000000000D+00  0.0000000000000D+00  0.0000000000000D+00
   317  3.1600000000000D+00  0.0000000000000D+00  0.0000000000000D+00
   318  3.1700000000000D+00  0.0000000000000D+00  0.0000000000000D+00
   319  3.1800000000000D+00  0.0000000000000D+00  0.0000000000000D+00
   320  3.1900000000000D+00  0.0000000000000D+00  0.0000000000000D+00
   321  3.2000000000000D+00  0.0000000000000D+00  0.0000000000000D+00
   322  3.2100000000000D+00  0.0000000000000D+00  0.0000000000000D+00
   323  3.2200000000000D+00  0.0000000000000D+00  0.0000000000000D+00
   324  3.2300000000000D+00  0.0000000000000D+00  0.0000000000000D+00
   325  3.2400000000000D+00  0.0000000000000D+00  0.0000000000000D+00
   326  3.2500000000000D+00  0.0000000000000D+00  0.0000000000000D+00
   327  3.2600000000000D+00  0.0000000000000D+00  0.0000000000000D+00
   328  3.2700000000000D+00  0.0000000000000D+00  0.0000000000000D+00
   329  3.2800000000000D+00  0.0000000000000D+00  0.0000000000000D+00
   330  3.2900000000000D+00  0.0000000000000D+00  0.0000000000000D+00
   331  3.3000000000000D+00  0.0000000000000D+00  0.0000000000000D+00
   332  3.3100000000000D+00  0.0000000000000D+00  0.0000000000000D+00
   333  3.3200000000000D+00  0.0000000000000D+00  0.0000000000000D+00
   334  3.3300000000000D+00  0.0000000000000D+00  0.0000000000000D+00
   335  3.3400000000000D+00  0.0000000000000D+00  0.0000000000000D+00
   336  3.3500000000000D+00  0.0000000000000D+00  0.0000000000000D+00
   337  3.3600000000000D+00  0.0000000000000D+00  0.0000000000000D+00
   338  3.3700000000000D+00  0.0000000000000D+00  0.0000000000000D+00
   339  3.3800000000000D+00  0.0000000000000D+00  0.0000000000000D+00
   340  3.3900000000000D+00  0.0000000000000D+00  0.0000000000000D+00
   341  3.4000000000000D+00  0.0000000000000D+00  0.0000000000000D+00
   342  3.4100000000000D+00  0.0000000000000D+00  0.0000000000000D+00
   343  3.4200000000000D+00  0.0000000000000D+00  0.0000000000000D+00
   344  3.4300000000000D+00  0.0000000000000D+00  0.0000000000000D+00
   345  3.4400000000000D+00  0.0000000000000D+00  0.0000000000000D+00
   346  3.4500000000000D+00  0.0000000000000D+00  0.0000000000000D+00
   347  3.4600000000000D+00  0.0000000000000D+00  0.0000000000000D+00
   348  3.4700000000000D+00  0.0000000000000D+00  0.0000000000000D+00
   349  3.4800000000000D+00  0.0000000000000D+00  0.0000000000000D+00
   350  3.4900000000000D+00  0.0000000000000D+00  0.0000000000000D+00
   351  3.5000000000000D+00  0.0000000000000D+00  0.0000000000000D+00
   352  3.5100000000000D+00  0.0000000000000D+00  0.0000000000000D+00
   353  3.5200000000000D+00  0.0000000000000D+00  0.0000000000000D+00
   354  3.5300000000000D+00  0.0000000000000D+00  0.0000000000000D+00
   355  3.5400000000000D+00  0.0000000000000D+00  0.0000000000000D+00
   356  3.5500000000000D+00  0.0000000000000D+00  0.0000000000000D+00
   357  3.5600000000000D+00  0.0000000000000D+00  0.0000000000000D+00
   358  3.5700000000000D+00  0.0000000000000D+00  0.0000000000000D+00
   359  3.5800000000000D+00  0.0000000000000D+00  0.0000000000000D+00
   360  3.5900000000000D+00  0.0000000000000D+00  0.0000000000000D+00
   361  3.6000000000000D+00  0.0000000000000D+00  0.0000000000000D+00
   362  3.6100000000000D+00  0.0000000000000D+00  0.0000000000000D+00
   363  3.6200000000000D+00  0.0000000000000D+00  0.0000000000000D+00
   364  3.6300000000000D+00  0.0000000000000D+00  0.0000000000000D+00
   365  3.6400000000000D+00  0.0000000000000D+00  0.0000000000000D+00
   366  3.6500000000000D+00  0.0000000000000D+00  0.0000000000000D+00
   367  3.6600000000000D+00  0.0000000000000D+00  0.0000000000000D+00
   368  3.6700000000000D+00  0.0000000000000D+00  0.0000000000000D+00
   369  3.6800000000000D+00  0.0000000000000D+00  0.0000000000000D+00
   370  3.6900000000000D+00  0.0000000000000D+00  0.0000000000000D+00
   371  3.7000000000000D+00  0.0000000000000D+00  0.0000000000000D+00
   372  3.7100000000000D+00  0.0000000000000D+00  0.0000000000000D+00
   373  3.7200000000000D+00  0.0000000000000D+00  0.0000000000000D+00
   374  3.7300000000000D+00  0.0000000000000D+00  0.0000000000000D+00
   375  3.7400000000000D+00  0.0000000000000D+00  0.0000000000000D+00
   376  3.7500000000000D+00  0.0000000000000D+00  0.0000000000000D+00
   377  3.7600000000000D+00  0.0000000000000D+00  0.0000000000000D+00
   378  3.7700000000000D+00  0.0000000000000D+00  0.0000000000000D+00
   379  3.7800000000000D+00  0.0000000000000D+00  0.0000000000000D+00
   380  3.7900000000000D+00  0.0000000000000D+00  0.0000000000000D+00
   381  3.8000000000000D+00  0.0000000000000D+00  0.0000000000000D+00
   382  3.8100000000000D+00  0.0000000000000D+00  0.0000000000000D+00
   383  3.8200000000000D+00  0.0000000000000D+00  0.0000000000000D+00
   384  3.8300000000000D+00  0.0000000000000D+00  0.0000000000000D+00
   385  3.8400000000000D+00  0.0000000000000D+00  0.0000000000000D+00
   386  3.8500000000000D+00  0.0000000000000D+00  0.0000000000000D+00
   387  3.8600000000000D+00  0.0000000000000D+00  0.0000000000000D+00
   388  3.8700000000000D+00  0.0000000000000D+00  0.0000000000000D+00
   389  3.8800000000000D+00  0.0000000000000D+00  0.0000000000000D+00
   390  3.8900000000000D+00  0.0000000000000D+00  0.0000000000000D+00
   391  3.9000000000000D+00  0.0000000000000D+00  0.0000000000000D+00
   392  3.9100000000000D+00  0.0000000000000D+00  0.0000000000000D+00
   393  3.9200000000000D+00  0.0000000000000D+00  0.0000000000000D+00
   394  3.9300000000000D+00  0.0000000000000D+00  0.0000000000000D+00
   395  3.9400000000000D+00  0.0000000000000D+00  0.0000000000000D+00
   396  3.9500000000000D+00  0.0000000000000D+00  0.0000000000000D+00
   397  3.9600000000000D+00  0.0000000000000D+00  0.0000000000000D+00
   398  3.9700000000000D+00  0.0000000000000D+00  0.0000000000000D+00
   399  3.9800000000000D+00  0.0000000000000D+00  0.0000000000000D+00
   400  3.9900000000000D+00  0.0000000000000D+00  0.0000000000000D+00
   401  4.0000000000000D+00  0.0000000000000D+00  0.0000000000000D+00
   402  4.0100000000000D+00  0.0000000000000D+00  0.0000000000000D+00
   403  4.0200000000000D+00  0.0000000000000D+00  0.0000000000000D+00
   404  4.0300000000000D+00  0.0000000000000D+00  0.0000000000000D+00
   405  4.0400000000000D+00  0.0000000000000D+00  0.0000000000000D+00
   406  4.0500000000000D+00  0.0000000000000D+00  0.0000000000000D+00
   407  4.0600000000000D+00  0.0000000000000D+00  0.0000000000000D+00
   408  4.0700000000000D+00  0.0000000000000D+00  0.0000000000000D+00
   409  4.0800000000000D+00  0.0000000000000D+00  0.0000000000000D+00
   410  4.0900000000000D+00  0.0000000000000D+00  0.0000000000000D+00
   411  4.1000000000000D+00  0.0000000000000D+00  0.0000000000000D+00
   412  4.1100000000000D+00  0.0000000000000D+00  0.0000000000000D+00
   413  4.1200000000000D+00  0.0000000000000D+00  0.0000000000000D+00
   414  4.1300000000000D+00  0.0000000000000D+00  0.0000000000000D+00
   415  4.1400000000000D+00  0.0000000000000D+00  0.0000000000000D+00
   416  4.1500000000000D+00  0.0000000000000D+00  0.0000000000000D+00
   417  4.1600000000000D+00  0.0000000000000D+00  0.0000000000000D+00
   418  4.1700000000000D+00  0.0000000000000D+00  0.0000000000000D+00
   419  4.1800000000000D+00  0.0000000000000D+00  0.0000000000000D+00
   420  4.1900000000000D+00  0.0000000000000D+00  0.0000000000000D+00
   421  4.2000000000000D+00  0.0000000000000D+00  0.0000000000000D+00
   422  4.2100000000000D+00  0.0000000000000D+00  0.0000000000000D+00