Mn    ONCVPSP-3.3.0  r_core=   1.41250   1.20960   1.61055
     25.0000     15.0000      220117    zatom,zion,pspd
     8      11   2     4   600     0    pspcod,pspxc,lmax,lloc,mmax,r2well
  5.99000000  0.00000000  0.00000000    rchrg fchrg qchrg
     2     2     2     0     0    nproj
     1     1           extension_switch
   0                         9.2356869764285D+00  1.5605554204558D+00
     1  0.0000000000000D+00  3.5692160338385D-10 -6.7378662718665D-10
     2  1.0000000000000D-02  7.9821092972312D-02  1.1745382467715D-03
     3  2.0000000000000D-02  1.5948415396977D-01  2.3363706755775D-03
     4  3.0000000000000D-02  2.3883097102194D-01  3.4739071927903D-03
     5  4.0000000000000D-02  3.1770297973508D-01  4.5777730896044D-03
     6  5.0000000000000D-02  3.9594110590900D-01  5.6418767471007D-03
     7  6.0000000000000D-02  4.7338563049305D-01  6.6644298373749D-03
     8  7.0000000000000D-02  5.4987608390539D-01  7.6489049829436D-03
     9  8.0000000000000D-02  6.2525117638264D-01  8.6049165104279D-03
    10  9.0000000000000D-02  6.9934877058714D-01  9.5490107654100D-03
    11  1.0000000000000D-01  7.7200590218050D-01  1.0505353435578D-02
    12  1.1000000000000D-01  8.4305885347937D-01  1.1506302450420D-02
    13  1.2000000000000D-01  9.1234328464882D-01  1.2592856276923D-02
    14  1.3000000000000D-01  9.7969442616561D-01  1.3814968801175D-02
    15  1.4000000000000D-01  1.0449473355061D+00  1.5231723462355D-02
    16  1.5000000000000D-01  1.1079372201884D+00  1.6911360874726D-02
    17  1.6000000000000D-01  1.1684998284322D+00  1.8931155820491D-02
    18  1.7000000000000D-01  1.2264719078074D+00  2.1377141205674D-02
    19  1.8000000000000D-01  1.2816917313204D+00  2.4343678326851D-02
    20  1.9000000000000D-01  1.3339996894601D+00  2.7932874581075D-02
    21  2.0000000000000D-01  1.3832389457912D+00  3.2253851547730D-02
    22  2.1000000000000D-01  1.4292561527528D+00  3.7421868161552D-02
    23  2.2000000000000D-01  1.4719022234117D+00  4.3557305462259D-02
    24  2.3000000000000D-01  1.5110331540343D+00  5.0784521131067D-02
    25  2.4000000000000D-01  1.5465108914874D+00  5.9230583688825D-02
    26  2.5000000000000D-01  1.5782042386784D+00  6.9023897818257D-02
    27  2.6000000000000D-01  1.6059897904906D+00  8.0292733765571D-02
    28  2.7000000000000D-01  1.6297528919833D+00  9.3163675158877D-02
    29  2.8000000000000D-01  1.6493886100089D+00  1.0776000083606D-01
    30  2.9000000000000D-01  1.6648027088634D+00  1.2420001738859D-01
    31  3.0000000000000D-01  1.6759126201351D+00  1.4259536008619D-01
    32  3.1000000000000D-01  1.6826483965578D+00  1.6304928063825D-01
    33  3.2000000000000D-01  1.6849536394190D+00  1.8565494085930D-01
    34  3.3000000000000D-01  1.6827863889150D+00  2.1049373173011D-01
    35  3.4000000000000D-01  1.6761199668004D+00  2.3763363757260D-01
    36  3.5000000000000D-01  1.6649437607412D+00  2.6712766508170D-01
    37  3.6000000000000D-01  1.6492639399574D+00  2.9901235677563D-01
    38  3.7000000000000D-01  1.6291040920319D+00  3.3330640803476D-01
    39  3.8000000000000D-01  1.6045057711622D+00  3.7000940629927D-01
    40  3.9000000000000D-01  1.5755289486510D+00  4.0910071018825D-01
    41  4.0000000000000D-01  1.5422523570528D+00  4.5053848529155D-01
    42  4.1000000000000D-01  1.5047737201254D+00  4.9425891217761D-01
    43  4.2000000000000D-01  1.4632098615652D+00  5.4017558076236D-01
    44  4.3000000000000D-01  1.4176966864336D+00  5.8817908360815D-01
    45  4.4000000000000D-01  1.3683890301923D+00  6.3813681897865D-01
    46  4.5000000000000D-01  1.3154603713616D+00  6.8989301258043D-01
    47  4.6000000000000D-01  1.2591024049782D+00  7.4326896489113D-01
    48  4.7000000000000D-01  1.1995244752543D+00  7.9806352882528D-01
    49  4.8000000000000D-01  1.1369528671119D+00  8.5405382024171D-01
    50  4.9000000000000D-01  1.0716299575809D+00  9.1099616147263D-01
    51  5.0000000000000D-01  1.0038132293817D+00  9.6862725567499D-01
    52  5.1000000000000D-01  9.3377415036672D-01  1.0266655873949D+00
    53  5.2000000000000D-01  8.6179692384085D-01  1.0848130423177D+00
    54  5.3000000000000D-01  7.8817711611307D-01  1.1427567367792D+00
    55  5.4000000000000D-01  7.1322016893998D-01  1.2001710452529D+00
    56  5.5000000000000D-01  6.3723980578067D-01  1.2567198117452D+00
    57  5.6000000000000D-01  5.6055634199012D-01  1.3120587288341D+00
    58  5.7000000000000D-01  4.8349491021525D-01  1.3658378660100D+00
    59  5.8000000000000D-01  4.0638361330954D-01  1.4177043270505D+00
    60  5.9000000000000D-01  3.2955161804329D-01  1.4673050143865D+00
    61  6.0000000000000D-01  2.5332720373500D-01  1.5142894768457D+00
    62  6.1000000000000D-01  1.7803578066558D-01  1.5583128157831D+00
    63  6.2000000000000D-01  1.0399789374064D-01  1.5990386234671D+00
    64  6.3000000000000D-01  3.1527227336057D-02  1.6361419266884D+00
    65  6.4000000000000D-01 -3.9071372413550D-02  1.6693121079135D+00
    66  6.5000000000000D-01 -1.0750384144971D-01  1.6982557759337D+00
    67  6.6000000000000D-01 -1.7348879129528D-01  1.7226995578608D+00
    68  6.7000000000000D-01 -2.3675933591708D-01  1.7423927845140D+00
    69  6.8000000000000D-01 -2.9706483593080D-01  1.7571100417165D+00
    70  6.9000000000000D-01 -3.5417254459371D-01  1.7666535607866D+00
    71  7.0000000000000D-01 -4.0786914064751D-01  1.7708554225631D+00
    72  7.1000000000000D-01 -4.5796213384688D-01  1.7695795506340D+00
    73  7.2000000000000D-01 -5.0428112992816D-01  1.7627234710395D+00
    74  7.3000000000000D-01 -5.4667894283969D-01  1.7502198175856D+00
    75  7.4000000000000D-01 -5.8503254325353D-01  1.7320375640079D+00
    76  7.5000000000000D-01 -6.1924383369964D-01  1.7081829665593D+00
    77  7.6000000000000D-01 -6.4924024209984D-01  1.6787002031264D+00
    78  7.7000000000000D-01 -6.7497512701404D-01  1.6436716977044D+00
    79  7.8000000000000D-01 -6.9642798953063D-01  1.6032181219273D+00
    80  7.9000000000000D-01 -7.1360448842139D-01  1.5574980683504D+00
    81  8.0000000000000D-01 -7.2653625692933D-01  1.5067073932869D+00
    82  8.1000000000000D-01 -7.3528052133320D-01  1.4510782301576D+00
    83  8.2000000000000D-01 -7.3991952323259D-01  1.3908776775123D+00
    84  8.3000000000000D-01 -7.4055974929504D-01  1.3264061690799D+00
    85  8.4000000000000D-01 -7.3733097398643D-01  1.2579955363655D+00
    86  8.5000000000000D-01 -7.3038512254741D-01  1.1860067774074D+00
    87  8.6000000000000D-01 -7.1989496316510D-01  1.1108275482987D+00
    88  8.7000000000000D-01 -7.0605263890106D-01  1.0328693969323D+00
    89  8.8000000000000D-01 -6.8906805145646D-01  9.5256476111763D-01
    90  8.9000000000000D-01 -6.6916711026691D-01  8.7036375570028D-01
    91  9.0000000000000D-01 -6.4658986170586D-01  7.8673077557861D-01
    92  9.1000000000000D-01 -6.2158851432296D-01  7.0214094351095D-01
    93  9.2000000000000D-01 -5.9442537703790D-01  6.1707643333060D-01
    94  9.3000000000000D-01 -5.6537072804013D-01  5.3202270060479D-01
    95  9.4000000000000D-01 -5.3470063279998D-01  4.4746465387437D-01
    96  9.5000000000000D-01 -5.0269473006576D-01  3.6388280036841D-01
    97  9.6000000000000D-01 -4.6963400500558D-01  2.8174940050836D-01
    98  9.7000000000000D-01 -4.3579856873870D-01  2.0152466557144D-01
    99  9.8000000000000D-01 -4.0146546339029D-01  1.2365303257889D-01
   100  9.9000000000000D-01 -3.6690651149734D-01  4.8559549813394D-02
   101  1.0000000000000D+00 -3.3238622809140D-01 -2.3353594651496D-02
   102  1.0100000000000D+00 -2.9815981309564D-01 -9.1710370385955D-02
   103  1.0200000000000D+00 -2.6447124076837D-01 -1.5616399873751D-01
   104  1.0300000000000D+00 -2.3155146192525D-01 -2.1639981632295D-01
   105  1.0400000000000D+00 -1.9961673340429D-01 -2.7213788295836D-01
   106  1.0500000000000D+00 -1.6886708787526D-01 -3.2313531169308D-01
   107  1.0600000000000D+00 -1.3948495559715D-01 -3.6918830144361D-01
   108  1.0700000000000D+00 -1.1163394805841D-01 -4.1013385586611D-01
   109  1.0800000000000D+00 -8.5457811696131D-02 -4.4585117536721D-01
   110  1.0900000000000D+00 -6.1079558156281D-02 -4.7626271239995D-01
   111  1.1000000000000D+00 -3.8600775463978D-02 -5.0133488409802D-01
   112  1.1100000000000D+00 -1.8101122706322D-02 -5.2107843958923D-01
   113  1.1200000000000D+00  3.6199136687922D-04 -5.3554848340946D-01
   114  1.1300000000000D+00  1.6753547009611D-02 -5.4484415938643D-01
   115  1.1400000000000D+00  3.1060873020498D-02 -5.4910800384005D-01
   116  1.1500000000000D+00  4.3293432397562D-02 -5.4852497995205D-01
   117  1.1600000000000D+00  5.3482441472374D-02 -5.4332120906043D-01
   118  1.1700000000000D+00  6.1680332951924D-02 -5.3376242121940D-01
   119  1.1800000000000D+00  6.7960062312732D-02 -5.2015211995913D-01
   120  1.1900000000000D+00  7.2414320041760D-02 -5.0282960423393D-01
   121  1.2000000000000D+00  7.5154410003851D-02 -4.8216728012542D-01
   122  1.2100000000000D+00  7.6309778964064D-02 -4.5856957668664D-01
   123  1.2200000000000D+00  7.6025577267055D-02 -4.3246726044211D-01
   124  1.2300000000000D+00  7.4458109215521D-02 -4.0430683754001D-01
   125  1.2400000000000D+00  7.1769922919772D-02 -3.7453955509876D-01
   126  1.2500000000000D+00  6.8126768183331D-02 -3.4361499582320D-01
   127  1.2600000000000D+00  6.3696160274305D-02 -3.1197860872061D-01
   128  1.2700000000000D+00  5.8645208209837D-02 -2.8006744596962D-01
   129  1.2800000000000D+00  5.3138701937707D-02 -2.4830653416473D-01
   130  1.2900000000000D+00  4.7337193208642D-02 -2.1710521615646D-01
   131  1.3000000000000D+00  4.1395156391143D-02 -1.8685366357356D-01
   132  1.3100000000000D+00  3.5459228634459D-02 -1.5791954876217D-01
   133  1.3200000000000D+00  2.9666548320724D-02 -1.3064491286674D-01
   134  1.3300000000000D+00  2.4143209863317D-02 -1.0534326410649D-01
   135  1.3400000000000D+00  1.9002847783451D-02 -8.2296929771478D-02
   136  1.3500000000000D+00  1.4345363066222D-02 -6.1754686095384D-02
   137  1.3600000000000D+00  1.0255805880752D-02 -4.3929692269407D-02
   138  1.3700000000000D+00  6.8057270609632D-03 -2.9007337364369D-02
   139  1.3800000000000D+00  4.0388147171800D-03 -1.7087659273604D-02
   140  1.3900000000000D+00  1.9882323079123D-03 -8.2596581028690D-03
   141  1.4000000000000D+00  7.4392975376147D-04 -2.8605471983032D-03
   142  1.4100000000000D+00  1.9945356959535D-04 -4.9702385759601D-04
   143  1.4200000000000D+00  2.7097356164194D-05  8.3077627801765D-05
   144  1.4300000000000D+00 -8.3119324272620D-08 -5.3140351087044D-06
   145  1.4400000000000D+00  1.8839075156127D-06 -3.9763250043591D-05
   146  1.4500000000000D+00  2.8874793366243D-07  4.2809600767244D-06
   147  1.4600000000000D+00  1.2995368985916D-07  4.4594072475369D-06
   148  1.4700000000000D+00 -3.5438963573763D-07  6.2576775493171D-07
   149  1.4800000000000D+00 -9.8159271761476D-08  1.7332591284184D-07
   150  1.4900000000000D+00  0.0000000000000D+00  0.0000000000000D+00
   151  1.5000000000000D+00  0.0000000000000D+00  0.0000000000000D+00
   152  1.5100000000000D+00  0.0000000000000D+00  0.0000000000000D+00
   153  1.5200000000000D+00  0.0000000000000D+00  0.0000000000000D+00
   154  1.5300000000000D+00  0.0000000000000D+00  0.0000000000000D+00
   155  1.5400000000000D+00  0.0000000000000D+00  0.0000000000000D+00
   156  1.5500000000000D+00  0.0000000000000D+00  0.0000000000000D+00
   157  1.5600000000000D+00  0.0000000000000D+00  0.0000000000000D+00
   158  1.5700000000000D+00  0.0000000000000D+00  0.0000000000000D+00
   159  1.5800000000000D+00  0.0000000000000D+00  0.0000000000000D+00
   160  1.5900000000000D+00  0.0000000000000D+00  0.0000000000000D+00
   161  1.6000000000000D+00  0.0000000000000D+00  0.0000000000000D+00
   162  1.6100000000000D+00  0.0000000000000D+00  0.0000000000000D+00
   163  1.6200000000000D+00  0.0000000000000D+00  0.0000000000000D+00
   164  1.6300000000000D+00  0.0000000000000D+00  0.0000000000000D+00
   165  1.6400000000000D+00  0.0000000000000D+00  0.0000000000000D+00
   166  1.6500000000000D+00  0.0000000000000D+00  0.0000000000000D+00
   167  1.6600000000000D+00  0.0000000000000D+00  0.0000000000000D+00
   168  1.6700000000000D+00  0.0000000000000D+00  0.0000000000000D+00
   169  1.6800000000000D+00  0.0000000000000D+00  0.0000000000000D+00
   170  1.6900000000000D+00  0.0000000000000D+00  0.0000000000000D+00
   171  1.7000000000000D+00  0.0000000000000D+00  0.0000000000000D+00
   172  1.7100000000000D+00  0.0000000000000D+00  0.0000000000000D+00
   173  1.7200000000000D+00  0.0000000000000D+00  0.0000000000000D+00
   174  1.7300000000000D+00  0.0000000000000D+00  0.0000000000000D+00
   175  1.7400000000000D+00  0.0000000000000D+00  0.0000000000000D+00
   176  1.7500000000000D+00  0.0000000000000D+00  0.0000000000000D+00
   177  1.7600000000000D+00  0.0000000000000D+00  0.0000000000000D+00
   178  1.7700000000000D+00  0.0000000000000D+00  0.0000000000000D+00
   179  1.7800000000000D+00  0.0000000000000D+00  0.0000000000000D+00
   180  1.7900000000000D+00  0.0000000000000D+00  0.0000000000000D+00
   181  1.8000000000000D+00  0.0000000000000D+00  0.0000000000000D+00
   182  1.8100000000000D+00  0.0000000000000D+00  0.0000000000000D+00
   183  1.8200000000000D+00  0.0000000000000D+00  0.0000000000000D+00
   184  1.8300000000000D+00  0.0000000000000D+00  0.0000000000000D+00
   185  1.8400000000000D+00  0.0000000000000D+00  0.0000000000000D+00
   186  1.8500000000000D+00  0.0000000000000D+00  0.0000000000000D+00
   187  1.8600000000000D+00  0.0000000000000D+00  0.0000000000000D+00
   188  1.8700000000000D+00  0.0000000000000D+00  0.0000000000000D+00
   189  1.8800000000000D+00  0.0000000000000D+00  0.0000000000000D+00
   190  1.8900000000000D+00  0.0000000000000D+00  0.0000000000000D+00
   191  1.9000000000000D+00  0.0000000000000D+00  0.0000000000000D+00
   192  1.9100000000000D+00  0.0000000000000D+00  0.0000000000000D+00
   193  1.9200000000000D+00  0.0000000000000D+00  0.0000000000000D+00
   194  1.9300000000000D+00  0.0000000000000D+00  0.0000000000000D+00
   195  1.9400000000000D+00  0.0000000000000D+00  0.0000000000000D+00
   196  1.9500000000000D+00  0.0000000000000D+00  0.0000000000000D+00
   197  1.9600000000000D+00  0.0000000000000D+00  0.0000000000000D+00
   198  1.9700000000000D+00  0.0000000000000D+00  0.0000000000000D+00
   199  1.9800000000000D+00  0.0000000000000D+00  0.0000000000000D+00
   200  1.9900000000000D+00  0.0000000000000D+00  0.0000000000000D+00
   201  2.0000000000000D+00  0.0000000000000D+00  0.0000000000000D+00
   202  2.0100000000000D+00  0.0000000000000D+00  0.0000000000000D+00
   203  2.0200000000000D+00  0.0000000000000D+00  0.0000000000000D+00
   204  2.0300000000000D+00  0.0000000000000D+00  0.0000000000000D+00
   205  2.0400000000000D+00  0.0000000000000D+00  0.0000000000000D+00
   206  2.0500000000000D+00  0.0000000000000D+00  0.0000000000000D+00
   207  2.0600000000000D+00  0.0000000000000D+00  0.0000000000000D+00
   208  2.0700000000000D+00  0.0000000000000D+00  0.0000000000000D+00
   209  2.0800000000000D+00  0.0000000000000D+00  0.0000000000000D+00
   210  2.0900000000000D+00  0.0000000000000D+00  0.0000000000000D+00
   211  2.1000000000000D+00  0.0000000000000D+00  0.0000000000000D+00
   212  2.1100000000000D+00  0.0000000000000D+00  0.0000000000000D+00
   213  2.1200000000000D+00  0.0000000000000D+00  0.0000000000000D+00
   214  2.1300000000000D+00  0.0000000000000D+00  0.0000000000000D+00
   215  2.1400000000000D+00  0.0000000000000D+00  0.0000000000000D+00
   216  2.1500000000000D+00  0.0000000000000D+00  0.0000000000000D+00
   217  2.1600000000000D+00  0.0000000000000D+00  0.0000000000000D+00
   218  2.1700000000000D+00  0.0000000000000D+00  0.0000000000000D+00
   219  2.1800000000000D+00  0.0000000000000D+00  0.0000000000000D+00
   220  2.1900000000000D+00  0.0000000000000D+00  0.0000000000000D+00
   221  2.2000000000000D+00  0.0000000000000D+00  0.0000000000000D+00
   222  2.2100000000000D+00  0.0000000000000D+00  0.0000000000000D+00
   223  2.2200000000000D+00  0.0000000000000D+00  0.0000000000000D+00
   224  2.2300000000000D+00  0.0000000000000D+00  0.0000000000000D+00
   225  2.2400000000000D+00  0.0000000000000D+00  0.0000000000000D+00
   226  2.2500000000000D+00  0.0000000000000D+00  0.0000000000000D+00
   227  2.2600000000000D+00  0.0000000000000D+00  0.0000000000000D+00
   228  2.2700000000000D+00  0.0000000000000D+00  0.0000000000000D+00
   229  2.2800000000000D+00  0.0000000000000D+00  0.0000000000000D+00
   230  2.2900000000000D+00  0.0000000000000D+00  0.0000000000000D+00
   231  2.3000000000000D+00  0.0000000000000D+00  0.0000000000000D+00
   232  2.3100000000000D+00  0.0000000000000D+00  0.0000000000000D+00
   233  2.3200000000000D+00  0.0000000000000D+00  0.0000000000000D+00
   234  2.3300000000000D+00  0.0000000000000D+00  0.0000000000000D+00
   235  2.3400000000000D+00  0.0000000000000D+00  0.0000000000000D+00
   236  2.3500000000000D+00  0.0000000000000D+00  0.0000000000000D+00
   237  2.3600000000000D+00  0.0000000000000D+00  0.0000000000000D+00
   238  2.3700000000000D+00  0.0000000000000D+00  0.0000000000000D+00
   239  2.3800000000000D+00  0.0000000000000D+00  0.0000000000000D+00
   240  2.3900000000000D+00  0.0000000000000D+00  0.0000000000000D+00
   241  2.4000000000000D+00  0.0000000000000D+00  0.0000000000000D+00
   242  2.4100000000000D+00  0.0000000000000D+00  0.0000000000000D+00
   243  2.4200000000000D+00  0.0000000000000D+00  0.0000000000000D+00
   244  2.4300000000000D+00  0.0000000000000D+00  0.0000000000000D+00
   245  2.4400000000000D+00  0.0000000000000D+00  0.0000000000000D+00
   246  2.4500000000000D+00  0.0000000000000D+00  0.0000000000000D+00
   247  2.4600000000000D+00  0.0000000000000D+00  0.0000000000000D+00
   248  2.4700000000000D+00  0.0000000000000D+00  0.0000000000000D+00
   249  2.4800000000000D+00  0.0000000000000D+00  0.0000000000000D+00
   250  2.4900000000000D+00  0.0000000000000D+00  0.0000000000000D+00
   251  2.5000000000000D+00  0.0000000000000D+00  0.0000000000000D+00
   252  2.5100000000000D+00  0.0000000000000D+00  0.0000000000000D+00
   253  2.5200000000000D+00  0.0000000000000D+00  0.0000000000000D+00
   254  2.5300000000000D+00  0.0000000000000D+00  0.0000000000000D+00
   255  2.5400000000000D+00  0.0000000000000D+00  0.0000000000000D+00
   256  2.5500000000000D+00  0.0000000000000D+00  0.0000000000000D+00
   257  2.5600000000000D+00  0.0000000000000D+00  0.0000000000000D+00
   258  2.5700000000000D+00  0.0000000000000D+00  0.0000000000000D+00
   259  2.5800000000000D+00  0.0000000000000D+00  0.0000000000000D+00
   260  2.5900000000000D+00  0.0000000000000D+00  0.0000000000000D+00
   261  2.6000000000000D+00  0.0000000000000D+00  0.0000000000000D+00
   262  2.6100000000000D+00  0.0000000000000D+00  0.0000000000000D+00
   263  2.6200000000000D+00  0.0000000000000D+00  0.0000000000000D+00
   264  2.6300000000000D+00  0.0000000000000D+00  0.0000000000000D+00
   265  2.6400000000000D+00  0.0000000000000D+00  0.0000000000000D+00
   266  2.6500000000000D+00  0.0000000000000D+00  0.0000000000000D+00
   267  2.6600000000000D+00  0.0000000000000D+00  0.0000000000000D+00
   268  2.6700000000000D+00  0.0000000000000D+00  0.0000000000000D+00
   269  2.6800000000000D+00  0.0000000000000D+00  0.0000000000000D+00
   270  2.6900000000000D+00  0.0000000000000D+00  0.0000000000000D+00
   271  2.7000000000000D+00  0.0000000000000D+00  0.0000000000000D+00
   272  2.7100000000000D+00  0.0000000000000D+00  0.0000000000000D+00
   273  2.7200000000000D+00  0.0000000000000D+00  0.0000000000000D+00
   274  2.7300000000000D+00  0.0000000000000D+00  0.0000000000000D+00
   275  2.7400000000000D+00  0.0000000000000D+00  0.0000000000000D+00
   276  2.7500000000000D+00  0.0000000000000D+00  0.0000000000000D+00
   277  2.7600000000000D+00  0.0000000000000D+00  0.0000000000000D+00
   278  2.7700000000000D+00  0.0000000000000D+00  0.0000000000000D+00
   279  2.7800000000000D+00  0.0000000000000D+00  0.0000000000000D+00
   280  2.7900000000000D+00  0.0000000000000D+00  0.0000000000000D+00
   281  2.8000000000000D+00  0.0000000000000D+00  0.0000000000000D+00
   282  2.8100000000000D+00  0.0000000000000D+00  0.0000000000000D+00
   283  2.8200000000000D+00  0.0000000000000D+00  0.0000000000000D+00
   284  2.8300000000000D+00  0.0000000000000D+00  0.0000000000000D+00
   285  2.8400000000000D+00  0.0000000000000D+00  0.0000000000000D+00
   286  2.8500000000000D+00  0.0000000000000D+00  0.0000000000000D+00
   287  2.8600000000000D+00  0.0000000000000D+00  0.0000000000000D+00
   288  2.8700000000000D+00  0.0000000000000D+00  0.0000000000000D+00
   289  2.8800000000000D+00  0.0000000000000D+00  0.0000000000000D+00
   290  2.8900000000000D+00  0.0000000000000D+00  0.0000000000000D+00
   291  2.9000000000000D+00  0.0000000000000D+00  0.0000000000000D+00
   292  2.9100000000000D+00  0.0000000000000D+00  0.0000000000000D+00
   293  2.9200000000000D+00  0.0000000000000D+00  0.0000000000000D+00
   294  2.9300000000000D+00  0.0000000000000D+00  0.0000000000000D+00
   295  2.9400000000000D+00  0.0000000000000D+00  0.0000000000000D+00
   296  2.9500000000000D+00  0.0000000000000D+00  0.0000000000000D+00
   297  2.9600000000000D+00  0.0000000000000D+00  0.0000000000000D+00
   298  2.9700000000000D+00  0.0000000000000D+00  0.0000000000000D+00
   299  2.9800000000000D+00  0.0000000000000D+00  0.0000000000000D+00
   300  2.9900000000000D+00  0.0000000000000D+00  0.0000000000000D+00
   301  3.0000000000000D+00  0.0000000000000D+00  0.0000000000000D+00
   302  3.0100000000000D+00  0.0000000000000D+00  0.0000000000000D+00
   303  3.0200000000000D+00  0.0000000000000D+00  0.0000000000000D+00
   304  3.0300000000000D+00  0.0000000000000D+00  0.0000000000000D+00
   305  3.0400000000000D+00  0.0000000000000D+00  0.0000000000000D+00
   306  3.0500000000000D+00  0.0000000000000D+00  0.0000000000000D+00
   307  3.0600000000000D+00  0.0000000000000D+00  0.0000000000000D+00
   308  3.0700000000000D+00  0.0000000000000D+00  0.0000000000000D+00
   309  3.0800000000000D+00  0.0000000000000D+00  0.0000000000000D+00
   310  3.0900000000000D+00  0.0000000000000D+00  0.0000000000000D+00
   311  3.1000000000000D+00  0.0000000000000D+00  0.0000000000000D+00
   312  3.1100000000000D+00  0.0000000000000D+00  0.0000000000000D+00
   313  3.1200000000000D+00  0.0000000000000D+00  0.0000000000000D+00
   314  3.1300000000000D+00  0.0000000000000D+00  0.0000000000000D+00
   315  3.1400000000000D+00  0.0000000000000D+00  0.0000000000000D+00
   316  3.1500000000000D+00  0.0000000000000D+00  0.0000000000000D+00
   317  3.1600000000000D+00  0.0000000000000D+00  0.0000000000000D+00
   318  3.1700000000000D+00  0.0000000000000D+00  0.0000000000000D+00
   319  3.1800000000000D+00  0.0000000000000D+00  0.0000000000000D+00
   320  3.1900000000000D+00  0.0000000000000D+00  0.0000000000000D+00
   321  3.2000000000000D+00  0.0000000000000D+00  0.0000000000000D+00
   322  3.2100000000000D+00  0.0000000000000D+00  0.0000000000000D+00
   323  3.2200000000000D+00  0.0000000000000D+00  0.0000000000000D+00
   324  3.2300000000000D+00  0.0000000000000D+00  0.0000000000000D+00
   325  3.2400000000000D+00  0.0000000000000D+00  0.0000000000000D+00
   326  3.2500000000000D+00  0.0000000000000D+00  0.0000000000000D+00
   327  3.2600000000000D+00  0.0000000000000D+00  0.0000000000000D+00
   328  3.2700000000000D+00  0.0000000000000D+00  0.0000000000000D+00
   329  3.2800000000000D+00  0.0000000000000D+00  0.0000000000000D+00
   330  3.2900000000000D+00  0.0000000000000D+00  0.0000000000000D+00
   331  3.3000000000000D+00  0.0000000000000D+00  0.0000000000000D+00
   332  3.3100000000000D+00  0.0000000000000D+00  0.0000000000000D+00
   333  3.3200000000000D+00  0.0000000000000D+00  0.0000000000000D+00
   334  3.3300000000000D+00  0.0000000000000D+00  0.0000000000000D+00
   335  3.3400000000000D+00  0.0000000000000D+00  0.0000000000000D+00
   336  3.3500000000000D+00  0.0000000000000D+00  0.0000000000000D+00
   337  3.3600000000000D+00  0.0000000000000D+00  0.0000000000000D+00
   338  3.3700000000000D+00  0.0000000000000D+00  0.0000000000000D+00
   339  3.3800000000000D+00  0.0000000000000D+00  0.0000000000000D+00
   340  3.3900000000000D+00  0.0000000000000D+00  0.0000000000000D+00
   341  3.4000000000000D+00  0.0000000000000D+00  0.0000000000000D+00
   342  3.4100000000000D+00  0.0000000000000D+00  0.0000000000000D+00
   343  3.4200000000000D+00  0.0000000000000D+00  0.0000000000000D+00
   344  3.4300000000000D+00  0.0000000000000D+00  0.0000000000000D+00
   345  3.4400000000000D+00  0.0000000000000D+00  0.0000000000000D+00
   346  3.4500000000000D+00  0.0000000000000D+00  0.0000000000000D+00
   347  3.4600000000000D+00  0.0000000000000D+00  0.0000000000000D+00
   348  3.4700000000000D+00  0.0000000000000D+00  0.0000000000000D+00
   349  3.4800000000000D+00  0.0000000000000D+00  0.0000000000000D+00
   350  3.4900000000000D+00  0.0000000000000D+00  0.0000000000000D+00
   351  3.5000000000000D+00  0.0000000000000D+00  0.0000000000000D+00
   352  3.5100000000000D+00  0.0000000000000D+00  0.0000000000000D+00
   353  3.5200000000000D+00  0.0000000000000D+00  0.0000000000000D+00
   354  3.5300000000000D+00  0.0000000000000D+00  0.0000000000000D+00
   355  3.5400000000000D+00  0.0000000000000D+00  0.0000000000000D+00
   356  3.5500000000000D+00  0.0000000000000D+00  0.0000000000000D+00
   357  3.5600000000000D+00  0.0000000000000D+00  0.0000000000000D+00
   358  3.5700000000000D+00  0.0000000000000D+00  0.0000000000000D+00
   359  3.5800000000000D+00  0.0000000000000D+00  0.0000000000000D+00
   360  3.5900000000000D+00  0.0000000000000D+00  0.0000000000000D+00
   361  3.6000000000000D+00  0.0000000000000D+00  0.0000000000000D+00
   362  3.6100000000000D+00  0.0000000000000D+00  0.0000000000000D+00
   363  3.6200000000000D+00  0.0000000000000D+00  0.0000000000000D+00
   364  3.6300000000000D+00  0.0000000000000D+00  0.0000000000000D+00
   365  3.6400000000000D+00  0.0000000000000D+00  0.0000000000000D+00
   366  3.6500000000000D+00  0.0000000000000D+00  0.0000000000000D+00
   367  3.6600000000000D+00  0.0000000000000D+00  0.0000000000000D+00
   368  3.6700000000000D+00  0.0000000000000D+00  0.0000000000000D+00
   369  3.6800000000000D+00  0.0000000000000D+00  0.0000000000000D+00
   370  3.6900000000000D+00  0.0000000000000D+00  0.0000000000000D+00
   371  3.7000000000000D+00  0.0000000000000D+00  0.0000000000000D+00
   372  3.7100000000000D+00  0.0000000000000D+00  0.0000000000000D+00
   373  3.7200000000000D+00  0.0000000000000D+00  0.0000000000000D+00
   374  3.7300000000000D+00  0.0000000000000D+00  0.0000000000000D+00
   375  3.7400000000000D+00  0.0000000000000D+00  0.0000000000000D+00
   376  3.7500000000000D+00  0.0000000000000D+00  0.0000000000000D+00
   377  3.7600000000000D+00  0.0000000000000D+00  0.0000000000000D+00
   378  3.7700000000000D+00  0.0000000000000D+00  0.0000000000000D+00
   379  3.7800000000000D+00  0.0000000000000D+00  0.0000000000000D+00
   380  3.7900000000000D+00  0.0000000000000D+00  0.0000000000000D+00
   381  3.8000000000000D+00  0.0000000000000D+00  0.0000000000000D+00
   382  3.8100000000000D+00  0.0000000000000D+00  0.0000000000000D+00
   383  3.8200000000000D+00  0.0000000000000D+00  0.0000000000000D+00
   384  3.8300000000000D+00  0.0000000000000D+00  0.0000000000000D+00
   385  3.8400000000000D+00  0.0000000000000D+00  0.0000000000000D+00
   386  3.8500000000000D+00  0.0000000000000D+00  0.0000000000000D+00
   387  3.8600000000000D+00  0.0000000000000D+00  0.0000000000000D+00
   388  3.8700000000000D+00  0.0000000000000D+00  0.0000000000000D+00
   389  3.8800000000000D+00  0.0000000000000D+00  0.0000000000000D+00
   390  3.8900000000000D+00  0.0000000000000D+00  0.0000000000000D+00
   391  3.9000000000000D+00  0.0000000000000D+00  0.0000000000000D+00
   392  3.9100000000000D+00  0.0000000000000D+00  0.0000000000000D+00
   393  3.9200000000000D+00  0.0000000000000D+00  0.0000000000000D+00
   394  3.9300000000000D+00  0.0000000000000D+00  0.0000000000000D+00
   395  3.9400000000000D+00  0.0000000000000D+00  0.0000000000000D+00
   396  3.9500000000000D+00  0.0000000000000D+00  0.0000000000000D+00
   397  3.9600000000000D+00  0.0000000000000D+00  0.0000000000000D+00
   398  3.9700000000000D+00  0.0000000000000D+00  0.0000000000000D+00
   399  3.9800000000000D+00  0.0000000000000D+00  0.0000000000000D+00
   400  3.9900000000000D+00  0.0000000000000D+00  0.0000000000000D+00
   401  4.0000000000000D+00  0.0000000000000D+00  0.0000000000000D+00
   402  4.0100000000000D+00  0.0000000000000D+00  0.0000000000000D+00
   403  4.0200000000000D+00  0.0000000000000D+00  0.0000000000000D+00
   404  4.0300000000000D+00  0.0000000000000D+00  0.0000000000000D+00
   405  4.0400000000000D+00  0.0000000000000D+00  0.0000000000000D+00
   406  4.0500000000000D+00  0.0000000000000D+00  0.0000000000000D+00
   407  4.0600000000000D+00  0.0000000000000D+00  0.0000000000000D+00
   408  4.0700000000000D+00  0.0000000000000D+00  0.0000000000000D+00
   409  4.0800000000000D+00  0.0000000000000D+00  0.0000000000000D+00
   410  4.0900000000000D+00  0.0000000000000D+00  0.0000000000000D+00
   411  4.1000000000000D+00  0.0000000000000D+00  0.0000000000000D+00
   412  4.1100000000000D+00  0.0000000000000D+00  0.0000000000000D+00
   413  4.1200000000000D+00  0.0000000000000D+00  0.0000000000000D+00
   414  4.1300000000000D+00  0.0000000000000D+00  0.0000000000000D+00
   415  4.1400000000000D+00  0.0000000000000D+00  0.0000000000000D+00
   416  4.1500000000000D+00  0.0000000000000D+00  0.0000000000000D+00
   417  4.1600000000000D+00  0.0000000000000D+00  0.0000000000000D+00
   418  4.1700000000000D+00  0.0000000000000D+00  0.0000000000000D+00
   419  4.1800000000000D+00  0.0000000000000D+00  0.0000000000000D+00
   420  4.1900000000000D+00  0.0000000000000D+00  0.0000000000000D+00
   421  4.2000000000000D+00  0.0000000000000D+00  0.0000000000000D+00
   422  4.2100000000000D+00  0.0000000000000D+00  0.0000000000000D+00