W     ONCVPSP-3.3.0  r_core=   1.46442   1.51778   1.36327   1.71007
     74.0000     28.0000      220117    zatom,zion,pspd
     8      11   3     4   600     0    pspcod,pspxc,lmax,lloc,mmax,r2well
  5.99000000  0.00000000  0.00000000    rchrg fchrg qchrg
     2     2     2     2     0    nproj
     1     1           extension_switch
   0                         1.5640411314703D+01  1.3164636874861D+00
     1  0.0000000000000D+00  2.1388374404907D-10 -6.2808240552936D-10
     2  1.0000000000000D-02  5.8084247468861D-02 -1.0911294527581D-02
     3  2.0000000000000D-02  1.1612280541081D-01 -2.1892225103842D-02
     4  3.0000000000000D-02  1.7406954569693D-01 -3.3010851201560D-02
     5  4.0000000000000D-02  2.3187746881121D-01 -4.4332096542488D-02
     6  5.0000000000000D-02  2.8949828264460D-01 -5.5916224563602D-02
     7  6.0000000000000D-02  3.4688199852185D-01 -6.7817365446134D-02
     8  7.0000000000000D-02  4.0397654995278D-01 -8.0082111153491D-02
     9  8.0000000000000D-02  4.6072743938588D-01 -9.2748194296055D-02
    10  9.0000000000000D-02  5.1707741797804D-01 -1.0584326586593D-01
    11  1.0000000000000D-01  5.7296620308234D-01 -1.1938378596815D-01
    12  1.1000000000000D-01  6.2833023779870D-01 -1.3337404062533D-01
    13  1.2000000000000D-01  6.8310249653217D-01 -1.4780529655807D-01
    14  1.3000000000000D-01  7.3721234006526D-01 -1.6265510455343D-01
    15  1.4000000000000D-01  7.9058542317615D-01 -1.7788676063968D-01
    16  1.5000000000000D-01  8.4314365732939D-01 -1.9344893279793D-01
    17  1.6000000000000D-01  8.9480523043272D-01 -2.0927545937390D-01
    18  1.7000000000000D-01  9.4548468509829D-01 -2.2528532371754D-01
    19  1.8000000000000D-01  9.9509305627340D-01 -2.4138280789010D-01
    20  1.9000000000000D-01  1.0435380685194D+00 -2.5745782655083D-01
    21  2.0000000000000D-01  1.0907243926233D+00 -2.7338644038340D-01
    22  2.1000000000000D-01  1.1365539606302D+00 -2.8903154666195D-01
    23  2.2000000000000D-01  1.1809263377885D+00 -3.0424374280276D-01
    24  2.3000000000000D-01  1.2237391493160D+00 -3.1886235701453D-01
    25  2.4000000000000D-01  1.2648885593184D+00 -3.3271663846707D-01
    26  2.5000000000000D-01  1.3042697986381D+00 -3.4562709775511D-01
    27  2.6000000000000D-01  1.3417777378783D+00 -3.5740698686143D-01
    28  2.7000000000000D-01  1.3773075013431D+00 -3.6786390633154D-01
    29  2.8000000000000D-01  1.4107551171648D+00 -3.7680152597884D-01
    30  2.9000000000000D-01  1.4420181984529D+00 -3.8402140415486D-01
    31  3.0000000000000D-01  1.4709966499123D+00 -3.8932488945879D-01
    32  3.1000000000000D-01  1.4975933940258D+00 -3.9251508773486D-01
    33  3.2000000000000D-01  1.5217151106061D+00 -3.9339887632649D-01
    34  3.3000000000000D-01  1.5432729832727D+00 -3.9178894683179D-01
    35  3.4000000000000D-01  1.5621834462222D+00 -3.8750585704496D-01
    36  3.5000000000000D-01  1.5783689245297D+00 -3.8038007237976D-01
    37  3.6000000000000D-01  1.5917585611460D+00 -3.7025397685858D-01
    38  3.7000000000000D-01  1.6022889237442D+00 -3.5698383372181D-01
    39  3.8000000000000D-01  1.6099046846217D+00 -3.4044167586472D-01
    40  3.9000000000000D-01  1.6145592669741D+00 -3.2051710664945D-01
    41  4.0000000000000D-01  1.6162154510340D+00 -2.9711899216311D-01
    42  4.1000000000000D-01  1.6148459338034D+00 -2.7017702670050D-01
    43  4.2000000000000D-01  1.6104338364030D+00 -2.3964315413543D-01
    44  4.3000000000000D-01  1.6029731534169D+00 -2.0549282890415D-01
    45  4.4000000000000D-01  1.5924691390181D+00 -1.6772610154977D-01
    46  4.5000000000000D-01  1.5789386251259D+00 -1.2636851516002D-01
    47  4.6000000000000D-01  1.5624102673513D+00 -8.1471800560026D-02
    48  4.7000000000000D-01  1.5429247150487D+00 -3.3114359788020D-02
    49  4.8000000000000D-01  1.5205347023846D+00  1.8598470831541D-02
    50  4.9000000000000D-01  1.4953050579685D+00  7.3534384808911D-02
    51  5.0000000000000D-01  1.4673126312549D+00  1.3153430160934D-01
    52  5.1000000000000D-01  1.4366461346124D+00  1.9241279751955D-01
    53  5.2000000000000D-01  1.4034059006653D+00  2.5595877189008D-01
    54  5.3000000000000D-01  1.3677035552314D+00  3.2193634723283D-01
    55  5.4000000000000D-01  1.3296616069102D+00  3.9008599947990D-01
    56  5.5000000000000D-01  1.2894129550989D+00  4.6012591254368D-01
    57  5.6000000000000D-01  1.2471003189389D+00  5.3175354917291D-01
    58  5.7000000000000D-01  1.2028755903992D+00  6.0464742799498D-01
    59  5.8000000000000D-01  1.1568991153941D+00  6.7846909460080D-01
    60  5.9000000000000D-01  1.1093389074913D+00  7.5286527256779D-01
    61  6.0000000000000D-01  1.0603697993976D+00  8.2747017847236D-01
    62  6.1000000000000D-01  1.0101725379985D+00  9.0190798320805D-01
    63  6.2000000000000D-01  9.5893282927279D-01  9.7579540034220D-01
    64  6.3000000000000D-01  9.0684033989739D-01  1.0487443808125D+00
    65  6.4000000000000D-01  8.5408766280038D-01  1.1203648920062D+00
    66  6.5000000000000D-01  8.0086925429491D-01  1.1902677582005D+00
    67  6.6000000000000D-01  7.4738035074502D-01  1.2580675384715D+00
    68  6.7000000000000D-01  6.9381587296036D-01  1.3233854175263D+00
    69  6.8000000000000D-01  6.4036932669229D-01  1.3858520844778D+00
    70  6.9000000000000D-01  5.8723170770773D-01  1.4451105743770D+00
    71  7.0000000000000D-01  5.3459041994389D-01  1.5008190473447D+00
    72  7.1000000000000D-01  4.8262821519884D-01  1.5526534804136D+00
    73  7.2000000000000D-01  4.3152216268818D-01  1.6003102476875D+00
    74  7.3000000000000D-01  3.8144265659742D-01  1.6435085651671D+00
    75  7.4000000000000D-01  3.3255246948330D-01  1.6819927775596D+00
    76  7.5000000000000D-01  2.8500585902968D-01  1.7155344655826D+00
    77  7.6000000000000D-01  2.3894773524414D-01  1.7439343536833D+00
    78  7.7000000000000D-01  1.9451289469617D-01  1.7670239997115D+00
    79  7.8000000000000D-01  1.5182532784789D-01  1.7846672498915D+00
    80  7.9000000000000D-01  1.1099760492422D-01  1.7967614444196D+00
    81  8.0000000000000D-01  7.2130345105567D-02  1.8032383611652D+00
    82  8.1000000000000D-01  3.5311773122156D-02  1.8040648872321D+00
    83  8.2000000000000D-01  6.1736658024277D-04  1.7992434105436D+00
    84  8.3000000000000D-01 -3.1890403430719D-02  1.7888119261167D+00
    85  8.4000000000000D-01 -6.2162236708927D-02  1.7728438542662D+00
    86  8.5000000000000D-01 -9.0162072374974D-02  1.7514475706038D+00
    87  8.6000000000000D-01 -1.1586706129437D-01  1.7247656503488D+00
    88  8.7000000000000D-01 -1.3926744325287D-01  1.6929738321108D+00
    89  8.8000000000000D-01 -1.6036633048560D-01  1.6562797089266D+00
    90  8.9000000000000D-01 -1.7917939998357D-01  1.6149211568946D+00
    91  9.0000000000000D-01 -1.9573449780286D-01  1.5691645142366D+00
    92  9.1000000000000D-01 -2.1007115937342D-01  1.5193025259904D+00
    93  9.2000000000000D-01 -2.2224005053968D-01  1.4656520717868D+00
    94  9.3000000000000D-01 -2.3230233475518D-01  1.4085516962493D+00
    95  9.4000000000000D-01 -2.4032897249487D-01  1.3483589634822D+00
    96  9.5000000000000D-01 -2.4639995952420D-01  1.2854476588052D+00
    97  9.6000000000000D-01 -2.5060351118641D-01  1.2202048624145D+00
    98  9.7000000000000D-01 -2.5303520031483D-01  1.1530279209024D+00
    99  9.8000000000000D-01 -2.5379705674907D-01  1.0843213435841D+00
   100  9.9000000000000D-01 -2.5299663672924D-01  1.0144936513331D+00
   101  1.0000000000000D+00 -2.5074607065549D-01  9.4395420610860D-01
   102  1.0100000000000D+00 -2.4716109782996D-01  8.7311004956543D-01
   103  1.0200000000000D+00 -2.4236009683624D-01  8.0236277903270D-01
   104  1.0300000000000D+00 -2.3646312017751D-01  7.3210548882631D-01
   105  1.0400000000000D+00 -2.2959094165800D-01  6.6271980417159D-01
   106  1.0500000000000D+00 -2.2186412477949D-01  5.9457303410071D-01
   107  1.0600000000000D+00 -2.1340212012975D-01  5.2801546849879D-01
   108  1.0700000000000D+00 -2.0432239934894D-01  4.6337784296620D-01
   109  1.0800000000000D+00 -1.9473963281772D-01  4.0096899350508D-01
   110  1.0900000000000D+00 -1.8476491769500D-01  3.4107372113586D-01
   111  1.1000000000000D+00 -1.7450506229829D-01  2.8395088424961D-01
   112  1.1100000000000D+00 -1.6406193221103D-01  2.2983173432254D-01
   113  1.1200000000000D+00 -1.5353186269833D-01  1.7891850777436D-01
   114  1.1300000000000D+00 -1.4300514144417D-01  1.3138328474583D-01
   115  1.1400000000000D+00 -1.3256556459338D-01  8.7367121970853D-02
   116  1.1500000000000D+00 -1.2229006842076D-01  4.6979464627839D-02
   117  1.1600000000000D+00 -1.1224843792569D-01  1.0297838521210D-02
   118  1.1700000000000D+00 -1.0250309310164D-01 -2.2632177949219D-02
   119  1.1800000000000D+00 -9.3108952363157D-02 -5.1796706907127D-02
   120  1.1900000000000D+00 -8.4113371974419D-02 -7.7213056243911D-02
   121  1.2000000000000D+00 -7.5556159425892D-02 -9.8928947067463D-02
   122  1.2100000000000D+00 -6.7469657958995D-02 -1.1702149595889D-01
   123  1.2200000000000D+00 -5.9878898418102D-02 -1.3159596805760D-01
   124  1.2300000000000D+00 -5.2801813912405D-02 -1.4278431929733D-01
   125  1.2400000000000D+00 -4.6249512401218D-02 -1.5074354736081D-01
   126  1.2500000000000D+00 -4.0226601063919D-02 -1.5565387503793D-01
   127  1.2600000000000D+00 -3.4731556056780D-02 -1.5771679047095D-01
   128  1.2700000000000D+00 -2.9757130879155D-02 -1.5715297003000D-01
   129  1.2800000000000D+00 -2.5290795695762D-02 -1.5420011235113D-01
   130  1.2900000000000D+00 -2.1315199830609D-02 -1.4911071238268D-01
   131  1.3000000000000D+00 -1.7808649451316D-02 -1.4214980495149D-01
   132  1.3100000000000D+00 -1.4745591916995D-02 -1.3359270894347D-01
   133  1.3200000000000D+00 -1.2097096110223D-02 -1.2372281293693D-01
   134  1.3300000000000D+00 -9.8313358889701D-03 -1.1282936285463D-01
   135  1.3400000000000D+00 -7.9140035450602D-03 -1.0120557010634D-01
   136  1.3500000000000D+00 -6.3089011055166D-03 -8.9145935083584D-02
   137  1.3600000000000D+00 -4.9779550651074D-03 -7.6946123351800D-02
   138  1.3700000000000D+00 -3.8818743184157D-03 -6.4899980526302D-02
   139  1.3800000000000D+00 -2.9823591720556D-03 -5.3289499680993D-02
   140  1.3900000000000D+00 -2.2441876779752D-03 -4.2375699874631D-02
   141  1.4000000000000D+00 -1.6375577618747D-03 -3.2388540529149D-02
   142  1.4100000000000D+00 -1.1383424348024D-03 -2.3526269152980D-02
   143  1.4200000000000D+00 -7.2863670693375D-04 -1.5959463888768D-02
   144  1.4300000000000D+00 -3.9675138127142D-04 -9.8006983468609D-03
   145  1.4400000000000D+00 -1.3904892544006D-04 -5.1217058700680D-03
   146  1.4500000000000D+00  4.6162482405569D-05 -2.1514108757523D-03
   147  1.4600000000000D+00  1.4322430682495D-04 -7.5227012974428D-04
   148  1.4700000000000D+00  1.1321995489099D-04 -2.0928399030373D-04
   149  1.4800000000000D+00  1.6405833303062D-05 -1.6150924670465D-05
   150  1.4900000000000D+00 -1.8240974313852D-05  1.1756721006796D-05
   151  1.5000000000000D+00  1.9839654505311D-07 -2.3562745138229D-07
   152  1.5100000000000D+00  3.7721015306270D-06 -3.9265726122236D-06
   153  1.5200000000000D+00 -1.8060067781469D-07  5.5664648425122D-07
   154  1.5300000000000D+00 -3.4801320662678D-07  1.0726445231870D-06
   155  1.5400000000000D+00  0.0000000000000D+00  0.0000000000000D+00
   156  1.5500000000000D+00  0.0000000000000D+00  0.0000000000000D+00
   157  1.5600000000000D+00  0.0000000000000D+00  0.0000000000000D+00
   158  1.5700000000000D+00  0.0000000000000D+00  0.0000000000000D+00
   159  1.5800000000000D+00  0.0000000000000D+00  0.0000000000000D+00
   160  1.5900000000000D+00  0.0000000000000D+00  0.0000000000000D+00
   161  1.6000000000000D+00  0.0000000000000D+00  0.0000000000000D+00
   162  1.6100000000000D+00  0.0000000000000D+00  0.0000000000000D+00
   163  1.6200000000000D+00  0.0000000000000D+00  0.0000000000000D+00
   164  1.6300000000000D+00  0.0000000000000D+00  0.0000000000000D+00
   165  1.6400000000000D+00  0.0000000000000D+00  0.0000000000000D+00
   166  1.6500000000000D+00  0.0000000000000D+00  0.0000000000000D+00
   167  1.6600000000000D+00  0.0000000000000D+00  0.0000000000000D+00
   168  1.6700000000000D+00  0.0000000000000D+00  0.0000000000000D+00
   169  1.6800000000000D+00  0.0000000000000D+00  0.0000000000000D+00
   170  1.6900000000000D+00  0.0000000000000D+00  0.0000000000000D+00
   171  1.7000000000000D+00  0.0000000000000D+00  0.0000000000000D+00
   172  1.7100000000000D+00  0.0000000000000D+00  0.0000000000000D+00
   173  1.7200000000000D+00  0.0000000000000D+00  0.0000000000000D+00
   174  1.7300000000000D+00  0.0000000000000D+00  0.0000000000000D+00
   175  1.7400000000000D+00  0.0000000000000D+00  0.0000000000000D+00
   176  1.7500000000000D+00  0.0000000000000D+00  0.0000000000000D+00
   177  1.7600000000000D+00  0.0000000000000D+00  0.0000000000000D+00
   178  1.7700000000000D+00  0.0000000000000D+00  0.0000000000000D+00
   179  1.7800000000000D+00  0.0000000000000D+00  0.0000000000000D+00
   180  1.7900000000000D+00  0.0000000000000D+00  0.0000000000000D+00
   181  1.8000000000000D+00  0.0000000000000D+00  0.0000000000000D+00
   182  1.8100000000000D+00  0.0000000000000D+00  0.0000000000000D+00
   183  1.8200000000000D+00  0.0000000000000D+00  0.0000000000000D+00
   184  1.8300000000000D+00  0.0000000000000D+00  0.0000000000000D+00
   185  1.8400000000000D+00  0.0000000000000D+00  0.0000000000000D+00
   186  1.8500000000000D+00  0.0000000000000D+00  0.0000000000000D+00
   187  1.8600000000000D+00  0.0000000000000D+00  0.0000000000000D+00
   188  1.8700000000000D+00  0.0000000000000D+00  0.0000000000000D+00
   189  1.8800000000000D+00  0.0000000000000D+00  0.0000000000000D+00
   190  1.8900000000000D+00  0.0000000000000D+00  0.0000000000000D+00
   191  1.9000000000000D+00  0.0000000000000D+00  0.0000000000000D+00
   192  1.9100000000000D+00  0.0000000000000D+00  0.0000000000000D+00
   193  1.9200000000000D+00  0.0000000000000D+00  0.0000000000000D+00
   194  1.9300000000000D+00  0.0000000000000D+00  0.0000000000000D+00
   195  1.9400000000000D+00  0.0000000000000D+00  0.0000000000000D+00
   196  1.9500000000000D+00  0.0000000000000D+00  0.0000000000000D+00
   197  1.9600000000000D+00  0.0000000000000D+00  0.0000000000000D+00
   198  1.9700000000000D+00  0.0000000000000D+00  0.0000000000000D+00
   199  1.9800000000000D+00  0.0000000000000D+00  0.0000000000000D+00
   200  1.9900000000000D+00  0.0000000000000D+00  0.0000000000000D+00
   201  2.0000000000000D+00  0.0000000000000D+00  0.0000000000000D+00
   202  2.0100000000000D+00  0.0000000000000D+00  0.0000000000000D+00
   203  2.0200000000000D+00  0.0000000000000D+00  0.0000000000000D+00
   204  2.0300000000000D+00  0.0000000000000D+00  0.0000000000000D+00
   205  2.0400000000000D+00  0.0000000000000D+00  0.0000000000000D+00
   206  2.0500000000000D+00  0.0000000000000D+00  0.0000000000000D+00
   207  2.0600000000000D+00  0.0000000000000D+00  0.0000000000000D+00
   208  2.0700000000000D+00  0.0000000000000D+00  0.0000000000000D+00
   209  2.0800000000000D+00  0.0000000000000D+00  0.0000000000000D+00
   210  2.0900000000000D+00  0.0000000000000D+00  0.0000000000000D+00
   211  2.1000000000000D+00  0.0000000000000D+00  0.0000000000000D+00
   212  2.1100000000000D+00  0.0000000000000D+00  0.0000000000000D+00
   213  2.1200000000000D+00  0.0000000000000D+00  0.0000000000000D+00
   214  2.1300000000000D+00  0.0000000000000D+00  0.0000000000000D+00
   215  2.1400000000000D+00  0.0000000000000D+00  0.0000000000000D+00
   216  2.1500000000000D+00  0.0000000000000D+00  0.0000000000000D+00
   217  2.1600000000000D+00  0.0000000000000D+00  0.0000000000000D+00
   218  2.1700000000000D+00  0.0000000000000D+00  0.0000000000000D+00
   219  2.1800000000000D+00  0.0000000000000D+00  0.0000000000000D+00
   220  2.1900000000000D+00  0.0000000000000D+00  0.0000000000000D+00
   221  2.2000000000000D+00  0.0000000000000D+00  0.0000000000000D+00
   222  2.2100000000000D+00  0.0000000000000D+00  0.0000000000000D+00
   223  2.2200000000000D+00  0.0000000000000D+00  0.0000000000000D+00
   224  2.2300000000000D+00  0.0000000000000D+00  0.0000000000000D+00
   225  2.2400000000000D+00  0.0000000000000D+00  0.0000000000000D+00
   226  2.2500000000000D+00  0.0000000000000D+00  0.0000000000000D+00
   227  2.2600000000000D+00  0.0000000000000D+00  0.0000000000000D+00
   228  2.2700000000000D+00  0.0000000000000D+00  0.0000000000000D+00
   229  2.2800000000000D+00  0.0000000000000D+00  0.0000000000000D+00
   230  2.2900000000000D+00  0.0000000000000D+00  0.0000000000000D+00
   231  2.3000000000000D+00  0.0000000000000D+00  0.0000000000000D+00
   232  2.3100000000000D+00  0.0000000000000D+00  0.0000000000000D+00
   233  2.3200000000000D+00  0.0000000000000D+00  0.0000000000000D+00
   234  2.3300000000000D+00  0.0000000000000D+00  0.0000000000000D+00
   235  2.3400000000000D+00  0.0000000000000D+00  0.0000000000000D+00
   236  2.3500000000000D+00  0.0000000000000D+00  0.0000000000000D+00
   237  2.3600000000000D+00  0.0000000000000D+00  0.0000000000000D+00
   238  2.3700000000000D+00  0.0000000000000D+00  0.0000000000000D+00
   239  2.3800000000000D+00  0.0000000000000D+00  0.0000000000000D+00
   240  2.3900000000000D+00  0.0000000000000D+00  0.0000000000000D+00
   241  2.4000000000000D+00  0.0000000000000D+00  0.0000000000000D+00
   242  2.4100000000000D+00  0.0000000000000D+00  0.0000000000000D+00
   243  2.4200000000000D+00  0.0000000000000D+00  0.0000000000000D+00
   244  2.4300000000000D+00  0.0000000000000D+00  0.0000000000000D+00
   245  2.4400000000000D+00  0.0000000000000D+00  0.0000000000000D+00
   246  2.4500000000000D+00  0.0000000000000D+00  0.0000000000000D+00
   247  2.4600000000000D+00  0.0000000000000D+00  0.0000000000000D+00
   248  2.4700000000000D+00  0.0000000000000D+00  0.0000000000000D+00
   249  2.4800000000000D+00  0.0000000000000D+00  0.0000000000000D+00
   250  2.4900000000000D+00  0.0000000000000D+00  0.0000000000000D+00
   251  2.5000000000000D+00  0.0000000000000D+00  0.0000000000000D+00
   252  2.5100000000000D+00  0.0000000000000D+00  0.0000000000000D+00
   253  2.5200000000000D+00  0.0000000000000D+00  0.0000000000000D+00
   254  2.5300000000000D+00  0.0000000000000D+00  0.0000000000000D+00
   255  2.5400000000000D+00  0.0000000000000D+00  0.0000000000000D+00
   256  2.5500000000000D+00  0.0000000000000D+00  0.0000000000000D+00
   257  2.5600000000000D+00  0.0000000000000D+00  0.0000000000000D+00
   258  2.5700000000000D+00  0.0000000000000D+00  0.0000000000000D+00
   259  2.5800000000000D+00  0.0000000000000D+00  0.0000000000000D+00
   260  2.5900000000000D+00  0.0000000000000D+00  0.0000000000000D+00
   261  2.6000000000000D+00  0.0000000000000D+00  0.0000000000000D+00
   262  2.6100000000000D+00  0.0000000000000D+00  0.0000000000000D+00
   263  2.6200000000000D+00  0.0000000000000D+00  0.0000000000000D+00
   264  2.6300000000000D+00  0.0000000000000D+00  0.0000000000000D+00
   265  2.6400000000000D+00  0.0000000000000D+00  0.0000000000000D+00
   266  2.6500000000000D+00  0.0000000000000D+00  0.0000000000000D+00
   267  2.6600000000000D+00  0.0000000000000D+00  0.0000000000000D+00
   268  2.6700000000000D+00  0.0000000000000D+00  0.0000000000000D+00
   269  2.6800000000000D+00  0.0000000000000D+00  0.0000000000000D+00
   270  2.6900000000000D+00  0.0000000000000D+00  0.0000000000000D+00
   271  2.7000000000000D+00  0.0000000000000D+00  0.0000000000000D+00
   272  2.7100000000000D+00  0.0000000000000D+00  0.0000000000000D+00
   273  2.7200000000000D+00  0.0000000000000D+00  0.0000000000000D+00
   274  2.7300000000000D+00  0.0000000000000D+00  0.0000000000000D+00
   275  2.7400000000000D+00  0.0000000000000D+00  0.0000000000000D+00
   276  2.7500000000000D+00  0.0000000000000D+00  0.0000000000000D+00
   277  2.7600000000000D+00  0.0000000000000D+00  0.0000000000000D+00
   278  2.7700000000000D+00  0.0000000000000D+00  0.0000000000000D+00
   279  2.7800000000000D+00  0.0000000000000D+00  0.0000000000000D+00
   280  2.7900000000000D+00  0.0000000000000D+00  0.0000000000000D+00
   281  2.8000000000000D+00  0.0000000000000D+00  0.0000000000000D+00
   282  2.8100000000000D+00  0.0000000000000D+00  0.0000000000000D+00
   283  2.8200000000000D+00  0.0000000000000D+00  0.0000000000000D+00
   284  2.8300000000000D+00  0.0000000000000D+00  0.0000000000000D+00
   285  2.8400000000000D+00  0.0000000000000D+00  0.0000000000000D+00
   286  2.8500000000000D+00  0.0000000000000D+00  0.0000000000000D+00
   287  2.8600000000000D+00  0.0000000000000D+00  0.0000000000000D+00
   288  2.8700000000000D+00  0.0000000000000D+00  0.0000000000000D+00
   289  2.8800000000000D+00  0.0000000000000D+00  0.0000000000000D+00
   290  2.8900000000000D+00  0.0000000000000D+00  0.0000000000000D+00
   291  2.9000000000000D+00  0.0000000000000D+00  0.0000000000000D+00
   292  2.9100000000000D+00  0.0000000000000D+00  0.0000000000000D+00
   293  2.9200000000000D+00  0.0000000000000D+00  0.0000000000000D+00
   294  2.9300000000000D+00  0.0000000000000D+00  0.0000000000000D+00
   295  2.9400000000000D+00  0.0000000000000D+00  0.0000000000000D+00
   296  2.9500000000000D+00  0.0000000000000D+00  0.0000000000000D+00
   297  2.9600000000000D+00  0.0000000000000D+00  0.0000000000000D+00
   298  2.9700000000000D+00  0.0000000000000D+00  0.0000000000000D+00
   299  2.9800000000000D+00  0.0000000000000D+00  0.0000000000000D+00
   300  2.9900000000000D+00  0.0000000000000D+00  0.0000000000000D+00
   301  3.0000000000000D+00  0.0000000000000D+00  0.0000000000000D+00
   302  3.0100000000000D+00  0.0000000000000D+00  0.0000000000000D+00
   303  3.0200000000000D+00  0.0000000000000D+00  0.0000000000000D+00
   304  3.0300000000000D+00  0.0000000000000D+00  0.0000000000000D+00
   305  3.0400000000000D+00  0.0000000000000D+00  0.0000000000000D+00
   306  3.0500000000000D+00  0.0000000000000D+00  0.0000000000000D+00
   307  3.0600000000000D+00  0.0000000000000D+00  0.0000000000000D+00
   308  3.0700000000000D+00  0.0000000000000D+00  0.0000000000000D+00
   309  3.0800000000000D+00  0.0000000000000D+00  0.0000000000000D+00
   310  3.0900000000000D+00  0.0000000000000D+00  0.0000000000000D+00
   311  3.1000000000000D+00  0.0000000000000D+00  0.0000000000000D+00
   312  3.1100000000000D+00  0.0000000000000D+00  0.0000000000000D+00
   313  3.1200000000000D+00  0.0000000000000D+00  0.0000000000000D+00
   314  3.1300000000000D+00  0.0000000000000D+00  0.0000000000000D+00
   315  3.1400000000000D+00  0.0000000000000D+00  0.0000000000000D+00
   316  3.1500000000000D+00  0.0000000000000D+00  0.0000000000000D+00
   317  3.1600000000000D+00  0.0000000000000D+00  0.0000000000000D+00
   318  3.1700000000000D+00  0.0000000000000D+00  0.0000000000000D+00
   319  3.1800000000000D+00  0.0000000000000D+00  0.0000000000000D+00
   320  3.1900000000000D+00  0.0000000000000D+00  0.0000000000000D+00
   321  3.2000000000000D+00  0.0000000000000D+00  0.0000000000000D+00
   322  3.2100000000000D+00  0.0000000000000D+00  0.0000000000000D+00
   323  3.2200000000000D+00  0.0000000000000D+00  0.0000000000000D+00
   324  3.2300000000000D+00  0.0000000000000D+00  0.0000000000000D+00
   325  3.2400000000000D+00  0.0000000000000D+00  0.0000000000000D+00
   326  3.2500000000000D+00  0.0000000000000D+00  0.0000000000000D+00
   327  3.2600000000000D+00  0.0000000000000D+00  0.0000000000000D+00
   328  3.2700000000000D+00  0.0000000000000D+00  0.0000000000000D+00
   329  3.2800000000000D+00  0.0000000000000D+00  0.0000000000000D+00
   330  3.2900000000000D+00  0.0000000000000D+00  0.0000000000000D+00
   331  3.3000000000000D+00  0.0000000000000D+00  0.0000000000000D+00
   332  3.3100000000000D+00  0.0000000000000D+00  0.0000000000000D+00
   333  3.3200000000000D+00  0.0000000000000D+00  0.0000000000000D+00
   334  3.3300000000000D+00  0.0000000000000D+00  0.0000000000000D+00
   335  3.3400000000000D+00  0.0000000000000D+00  0.0000000000000D+00
   336  3.3500000000000D+00  0.0000000000000D+00  0.0000000000000D+00
   337  3.3600000000000D+00  0.0000000000000D+00  0.0000000000000D+00
   338  3.3700000000000D+00  0.0000000000000D+00  0.0000000000000D+00
   339  3.3800000000000D+00  0.0000000000000D+00  0.0000000000000D+00
   340  3.3900000000000D+00  0.0000000000000D+00  0.0000000000000D+00
   341  3.4000000000000D+00  0.0000000000000D+00  0.0000000000000D+00
   342  3.4100000000000D+00  0.0000000000000D+00  0.0000000000000D+00
   343  3.4200000000000D+00  0.0000000000000D+00  0.0000000000000D+00
   344  3.4300000000000D+00  0.0000000000000D+00  0.0000000000000D+00
   345  3.4400000000000D+00  0.0000000000000D+00  0.0000000000000D+00
   346  3.4500000000000D+00  0.0000000000000D+00  0.0000000000000D+00
   347  3.4600000000000D+00  0.0000000000000D+00  0.0000000000000D+00
   348  3.4700000000000D+00  0.0000000000000D+00  0.0000000000000D+00
   349  3.4800000000000D+00  0.0000000000000D+00  0.0000000000000D+00
   350  3.4900000000000D+00  0.0000000000000D+00  0.0000000000000D+00
   351  3.5000000000000D+00  0.0000000000000D+00  0.0000000000000D+00
   352  3.5100000000000D+00  0.0000000000000D+00  0.0000000000000D+00
   353  3.5200000000000D+00  0.0000000000000D+00  0.0000000000000D+00
   354  3.5300000000000D+00  0.0000000000000D+00  0.0000000000000D+00
   355  3.5400000000000D+00  0.0000000000000D+00  0.0000000000000D+00
   356  3.5500000000000D+00  0.0000000000000D+00  0.0000000000000D+00
   357  3.5600000000000D+00  0.0000000000000D+00  0.0000000000000D+00
   358  3.5700000000000D+00  0.0000000000000D+00  0.0000000000000D+00
   359  3.5800000000000D+00  0.0000000000000D+00  0.0000000000000D+00
   360  3.5900000000000D+00  0.0000000000000D+00  0.0000000000000D+00
   361  3.6000000000000D+00  0.0000000000000D+00  0.0000000000000D+00
   362  3.6100000000000D+00  0.0000000000000D+00  0.0000000000000D+00
   363  3.6200000000000D+00  0.0000000000000D+00  0.0000000000000D+00
   364  3.6300000000000D+00  0.0000000000000D+00  0.0000000000000D+00
   365  3.6400000000000D+00  0.0000000000000D+00  0.0000000000000D+00
   366  3.6500000000000D+00  0.0000000000000D+00  0.0000000000000D+00
   367  3.6600000000000D+00  0.0000000000000D+00  0.0000000000000D+00
   368  3.6700000000000D+00  0.0000000000000D+00  0.0000000000000D+00
   369  3.6800000000000D+00  0.0000000000000D+00  0.0000000000000D+00
   370  3.6900000000000D+00  0.0000000000000D+00  0.0000000000000D+00
   371  3.7000000000000D+00  0.0000000000000D+00  0.0000000000000D+00
   372  3.7100000000000D+00  0.0000000000000D+00  0.0000000000000D+00
   373  3.7200000000000D+00  0.0000000000000D+00  0.0000000000000D+00
   374  3.7300000000000D+00  0.0000000000000D+00  0.0000000000000D+00
   375  3.7400000000000D+00  0.0000000000000D+00  0.0000000000000D+00
   376  3.7500000000000D+00  0.0000000000000D+00  0.0000000000000D+00
   377  3.7600000000000D+00  0.0000000000000D+00  0.0000000000000D+00
   378  3.7700000000000D+00  0.0000000000000D+00  0.0000000000000D+00
   379  3.7800000000000D+00  0.0000000000000D+00  0.0000000000000D+00
   380  3.7900000000000D+00  0.0000000000000D+00  0.0000000000000D+00
   381  3.8000000000000D+00  0.0000000000000D+00  0.0000000000000D+00
   382  3.8100000000000D+00  0.0000000000000D+00  0.0000000000000D+00
   383  3.8200000000000D+00  0.0000000000000D+00  0.0000000000000D+00
   384  3.8300000000000D+00  0.0000000000000D+00  0.0000000000000D+00
   385  3.8400000000000D+00  0.0000000000000D+00  0.0000000000000D+00
   386  3.8500000000000D+00  0.0000000000000D+00  0.0000000000000D+00
   387  3.8600000000000D+00  0.0000000000000D+00  0.0000000000000D+00
   388  3.8700000000000D+00  0.0000000000000D+00  0.0000000000000D+00
   389  3.8800000000000D+00  0.0000000000000D+00  0.0000000000000D+00
   390  3.8900000000000D+00  0.0000000000000D+00  0.0000000000000D+00
   391  3.9000000000000D+00  0.0000000000000D+00  0.0000000000000D+00
   392  3.9100000000000D+00  0.0000000000000D+00  0.0000000000000D+00
   393  3.9200000000000D+00  0.0000000000000D+00  0.0000000000000D+00
   394  3.9300000000000D+00  0.0000000000000D+00  0.0000000000000D+00
   395  3.9400000000000D+00  0.0000000000000D+00  0.0000000000000D+00
   396  3.9500000000000D+00  0.0000000000000D+00  0.0000000000000D+00
   397  3.9600000000000D+00  0.0000000000000D+00  0.0000000000000D+00
   398  3.9700000000000D+00  0.0000000000000D+00  0.0000000000000D+00
   399  3.9800000000000D+00  0.0000000000000D+00  0.0000000000000D+00
   400  3.9900000000000D+00  0.0000000000000D+00  0.0000000000000D+00
   401  4.0000000000000D+00  0.0000000000000D+00  0.0000000000000D+00
   402  4.0100000000000D+00  0.0000000000000D+00  0.0000000000000D+00
   403  4.0200000000000D+00  0.0000000000000D+00  0.0000000000000D+00
   404  4.0300000000000D+00  0.0000000000000D+00  0.0000000000000D+00
   405  4.0400000000000D+00  0.0000000000000D+00  0.0000000000000D+00
   406  4.0500000000000D+00  0.0000000000000D+00  0.0000000000000D+00
   407  4.0600000000000D+00  0.0000000000000D+00  0.0000000000000D+00
   408  4.0700000000000D+00  0.0000000000000D+00  0.0000000000000D+00
   409  4.0800000000000D+00  0.0000000000000D+00  0.0000000000000D+00
   410  4.0900000000000D+00  0.0000000000000D+00  0.0000000000000D+00
   411  4.1000000000000D+00  0.0000000000000D+00  0.0000000000000D+00
   412  4.1100000000000D+00  0.0000000000000D+00  0.0000000000000D+00
   413  4.1200000000000D+00  0.0000000000000D+00  0.0000000000000D+00
   414  4.1300000000000D+00  0.0000000000000D+00  0.0000000000000D+00
   415  4.1400000000000D+00  0.0000000000000D+00  0.0000000000000D+00
   416  4.1500000000000D+00  0.0000000000000D+00  0.0000000000000D+00
   417  4.1600000000000D+00  0.0000000000000D+00  0.0000000000000D+00
   418  4.1700000000000D+00  0.0000000000000D+00  0.0000000000000D+00
   419  4.1800000000000D+00  0.0000000000000D+00  0.0000000000000D+00
   420  4.1900000000000D+00  0.0000000000000D+00  0.0000000000000D+00
   421  4.2000000000000D+00  0.0000000000000D+00  0.0000000000000D+00
   422  4.2100000000000D+00  0.0000000000000D+00  0.0000000000000D+00