C     ONCVPSP-3.3.0  r_core=   1.20440   1.26326
      6.0000      4.0000      220117    zatom,zion,pspd
     8      11   1     4   600     0    pspcod,pspxc,lmax,lloc,mmax,r2well
  5.99000000  0.00000000  0.00000000    rchrg fchrg qchrg
     2     2     0     0     0    nproj
     1     1           extension_switch
   0                         6.4815481569399D+00  3.8550364489851D-01
     1  0.0000000000000D+00 -1.1200984584292D-09  6.4314796266451D-09
     2  1.0000000000000D-02  7.5046259160334D-02 -2.0296643939904D-02
     3  2.0000000000000D-02  1.4986447908995D-01 -4.0166829804289D-02
     4  3.0000000000000D-02  2.2422833821179D-01 -5.9191343199343D-02
     5  4.0000000000000D-02  2.9791492915535D-01 -7.6965343525397D-02
     6  5.0000000000000D-02  3.7070641339801D-01 -9.3105268616587D-02
     7  6.0000000000000D-02  4.4239161375978D-01 -1.0725540531237D-01
     8  7.0000000000000D-02  5.1276752537027D-01 -1.1909402226970D-01
     9  8.0000000000000D-02  5.8164072684687D-01 -1.2833896775605D-01
    10  9.0000000000000D-02  6.4882867479379D-01 -1.3475264303185D-01
    11  1.0000000000000D-01  7.1416086633494D-01 -1.3814627112568D-01
    12  1.1000000000000D-01  7.7747985620575D-01 -1.3838339119742D-01
    13  1.2000000000000D-01  8.3864211692723D-01 -1.3538252012761D-01
    14  1.3000000000000D-01  8.9751873274008D-01 -1.2911893530349D-01
    15  1.4000000000000D-01  9.5399592025925D-01 -1.1962554562049D-01
    16  1.5000000000000D-01  1.0079753711877D+00 -1.0699283129664D-01
    17  1.6000000000000D-01  1.0593744148699D+00 -9.1367847014797D-02
    18  1.7000000000000D-01  1.1081260009349D+00 -7.2952296966513D-02
    19  1.8000000000000D-01  1.1541785047473D+00 -5.1999704368886D-02
    20  1.9000000000000D-01  1.1974953608061D+00 -2.8811711765760D-02
    21  2.0000000000000D-01  1.2380545315886D+00 -3.7335617059214D-03
    22  2.1000000000000D-01  1.2758478215798D+00  2.2851179975786D-02
    23  2.2000000000000D-01  1.3108800483387D+00  5.0526584246583D-02
    24  2.3000000000000D-01  1.3431680843934D+00  7.8850917508624D-02
    25  2.4000000000000D-01  1.3727397855042D+00  1.0736370431814D-01
    26  2.5000000000000D-01  1.3996328223602D+00  1.3559319140528D-01
    27  2.6000000000000D-01  1.4238934340618D+00  1.6306410331582D-01
    28  2.7000000000000D-01  1.4455751227665D+00  1.8930557464070D-01
    29  2.8000000000000D-01  1.4647373096249D+00  2.1385914007098D-01
    30  2.9000000000000D-01  1.4814439726003D+00  2.3628666147448D-01
    31  3.0000000000000D-01  1.4957622869331D+00  2.5617807087865D-01
    32  3.1000000000000D-01  1.5077612888880D+00  2.7315880967730D-01
    33  3.2000000000000D-01  1.5175105829954D+00  2.8689684754837D-01
    34  3.3000000000000D-01  1.5250791122892D+00  2.9710916944465D-01
    35  3.4000000000000D-01  1.5305340100436D+00  3.0356762554211D-01
    36  3.5000000000000D-01  1.5339395502497D+00  3.0610404712221D-01
    37  3.6000000000000D-01  1.5353562125527D+00  3.0461454092270D-01
    38  3.7000000000000D-01  1.5348398756238D+00  2.9906288539311D-01
    39  3.8000000000000D-01  1.5324411509824D+00  2.8948296439449D-01
    40  3.9000000000000D-01  1.5282048671456D+00  2.7598018702521D-01
    41  4.0000000000000D-01  1.5221697116915D+00  2.5873185626267D-01
    42  4.1000000000000D-01  1.5143680364117D+00  2.3798646379318D-01
    43  4.2000000000000D-01  1.5048258282322D+00  2.1406190355891D-01
    44  4.3000000000000D-01  1.4935628460291D+00  1.8734261197530D-01
    45  4.4000000000000D-01  1.4805929209052D+00  1.5827565824771D-01
    46  4.5000000000000D-01  1.4659244149445D+00  1.2736582352988D-01
    47  4.6000000000000D-01  1.4495608309771D+00  9.5169722601241D-02
    48  4.7000000000000D-01  1.4315015634910D+00  6.2289036083021D-02
    49  4.8000000000000D-01  1.4117427785577D+00  2.9362934761041D-02
    50  4.9000000000000D-01  1.3902784085352D+00 -2.9402098619363D-03
    51  5.0000000000000D-01  1.3671012453919D+00 -3.3931723284204D-02
    52  5.1000000000000D-01  1.3422041148022D+00 -6.2912018460824D-02
    53  5.2000000000000D-01  1.3155811117146D+00 -8.9180354929944D-02
    54  5.3000000000000D-01  1.2872288769108D+00 -1.1204483564025D-01
    55  5.4000000000000D-01  1.2571478931844D+00 -1.3083250535179D-01
    56  5.5000000000000D-01  1.2253437791725D+00 -1.4489941114957D-01
    57  5.6000000000000D-01  1.1918285586031D+00 -1.5364048417883D-01
    58  5.7000000000000D-01  1.1566218827577D+00 -1.5649910220676D-01
    59  5.8000000000000D-01  1.1197521843218D+00 -1.5297619506378D-01
    60  5.9000000000000D-01  1.0812577414788D+00 -1.4263875938679D-01
    61  6.0000000000000D-01  1.0411876321043D+00 -1.2512765535788D-01
    62  6.1000000000000D-01  9.9960255922515D-01 -1.0016456621777D-01
    63  6.2000000000000D-01  9.5657553049106D-01 -6.7558011134409D-02
    64  6.3000000000000D-01  9.1219237627786D-01 -2.7208313474779D-02
    65  6.4000000000000D-01  8.6655209312982D-01  2.0888560641300D-02
    66  6.5000000000000D-01  8.1976700158205D-01  7.6638364359147D-02
    67  6.6000000000000D-01  7.7196270990925D-01  1.3984718821099D-01
    68  6.7000000000000D-01  7.2327787799895D-01  2.1022137367745D-01
    69  6.8000000000000D-01  6.7386377834290D-01  2.8736874445577D-01
    70  6.9000000000000D-01  6.2388365399180D-01  3.7080116029566D-01
    71  7.0000000000000D-01  5.7351187622392D-01  4.5993838052368D-01
    72  7.1000000000000D-01  5.2293290757931D-01  5.5411320666039D-01
    73  7.2000000000000D-01  4.7234007878601D-01  6.5257785596068D-01
    74  7.3000000000000D-01  4.2193419088463D-01  7.5451150070029D-01
    75  7.4000000000000D-01  3.7192195653097D-01  8.5902889164765D-01
    76  7.5000000000000D-01  3.2251429697136D-01  9.6518996871942D-01
    77  7.6000000000000D-01  2.7392451350027D-01  1.0720103475633D+00
    78  7.7000000000000D-01  2.2636635431542D-01  1.1784725577981D+00
    79  7.8000000000000D-01  1.8005199951483D-01  1.2835378972793D+00
    80  7.9000000000000D-01  1.3518998853562D-01  1.3861587570154D+00
    81  8.0000000000000D-01  9.1983115576893D-02  1.4852912634942D+00
    82  8.1000000000000D-01  5.0626319461667D-02  1.5799080792645D+00
    83  8.2000000000000D-01  1.1304594960272D-02  1.6690111987737D+00
    84  8.3000000000000D-01 -2.5809047191865D-02  1.7516445747399D+00
    85  8.4000000000000D-01 -6.0555544501668D-02  1.8269064107857D+00
    86  8.5000000000000D-01 -9.2791644588131D-02  1.8939609586861D+00
    87  8.6000000000000D-01 -1.2239163902969D-01  1.9520496633684D+00
    88  8.7000000000000D-01 -1.4924894473598D-01  2.0005015056964D+00
    89  8.8000000000000D-01 -1.7327750996120D-01  2.0387424019998D+00
    90  8.9000000000000D-01 -1.9441302396842D-01  2.0663035301624D+00
    91  9.0000000000000D-01 -2.1261391154468D-01  2.0828284647309D+00
    92  9.1000000000000D-01 -2.2786209602956D-01  2.0880790177916D+00
    93  9.2000000000000D-01 -2.4016351722340D-01  2.0819396980975D+00
    94  9.3000000000000D-01 -2.4954839345237D-01  2.0644207179227D+00
    95  9.4000000000000D-01 -2.5607122014772D-01  2.0356594951437D+00
    96  9.5000000000000D-01 -2.5981050050676D-01  1.9959206168683D+00
    97  9.6000000000000D-01 -2.6086820710033D-01  1.9455942502985D+00
    98  9.7000000000000D-01 -2.5936897663144D-01  1.8851930061633D+00
    99  9.8000000000000D-01 -2.5545904342808D-01  1.8153472799620D+00
   100  9.9000000000000D-01 -2.4930492044825D-01  1.7367991151110D+00
   101  1.0000000000000D+00 -2.4109183992950D-01  1.6503946519079D+00
   102  1.0100000000000D+00 -2.3102196878638D-01  1.5570752438145D+00
   103  1.0200000000000D+00 -2.1931241680620D-01  1.4578673400317D+00
   104  1.0300000000000D+00 -2.0619305837341D-01  1.3538712492607D+00
   105  1.0400000000000D+00 -1.9190419093238D-01  1.2462489143106D+00
   106  1.0500000000000D+00 -1.7669405546753D-01  1.1362108395722D+00
   107  1.0600000000000D+00 -1.6081624622085D-01  1.0250023250160D+00
   108  1.0700000000000D+00 -1.4452703834111D-01  9.1388916926927D-01
   109  1.0800000000000D+00 -1.2808266328702D-01  8.0414301120210D-01
   110  1.0900000000000D+00 -1.1173656258040D-01  6.9702648426739D-01
   111  1.1000000000000D+00 -9.5736650869608D-02  5.9377836022527D-01
   112  1.1100000000000D+00 -8.0322619307626D-02  4.9559885943353D-01
   113  1.1200000000000D+00 -6.5723309775572D-02  4.0363530238088D-01
   114  1.1300000000000D+00 -5.2154189659129D-02  3.1896827258653D-01
   115  1.1400000000000D+00 -3.9814955683766D-02  2.4259845421715D-01
   116  1.1500000000000D+00 -2.8887293987518D-02  1.7543430024542D-01
   117  1.1600000000000D+00 -1.9532821362267D-02  1.1828067410844D-01
   118  1.1700000000000D+00 -1.1895859153383D-02  7.1856389199274D-02
   119  1.1800000000000D+00 -6.0580152721712D-03  3.6522007047635D-02
   120  1.1900000000000D+00 -2.1852399264270D-03  1.3164670533175D-02
   121  1.2000000000000D+00 -3.8373769324319D-04  2.3332083014254D-03
   122  1.2100000000000D+00  5.4457488999967D-05 -3.0794018459547D-04
   123  1.2200000000000D+00 -7.1394886559669D-06  4.1762619818107D-05
   124  1.2300000000000D+00 -1.5017084463336D-05  8.8327098475550D-05
   125  1.2400000000000D+00  3.9338707529792D-06 -2.2986236238825D-05
   126  1.2500000000000D+00  9.1913229123004D-08 -5.8443055264777D-07
   127  1.2600000000000D+00  1.3565001727905D-07 -8.6253105588293D-07
   128  1.2700000000000D+00  0.0000000000000D+00  0.0000000000000D+00
   129  1.2800000000000D+00  0.0000000000000D+00  0.0000000000000D+00
   130  1.2900000000000D+00  0.0000000000000D+00  0.0000000000000D+00
   131  1.3000000000000D+00  0.0000000000000D+00  0.0000000000000D+00
   132  1.3100000000000D+00  0.0000000000000D+00  0.0000000000000D+00
   133  1.3200000000000D+00  0.0000000000000D+00  0.0000000000000D+00
   134  1.3300000000000D+00  0.0000000000000D+00  0.0000000000000D+00
   135  1.3400000000000D+00  0.0000000000000D+00  0.0000000000000D+00
   136  1.3500000000000D+00  0.0000000000000D+00  0.0000000000000D+00
   137  1.3600000000000D+00  0.0000000000000D+00  0.0000000000000D+00
   138  1.3700000000000D+00  0.0000000000000D+00  0.0000000000000D+00
   139  1.3800000000000D+00  0.0000000000000D+00  0.0000000000000D+00
   140  1.3900000000000D+00  0.0000000000000D+00  0.0000000000000D+00
   141  1.4000000000000D+00  0.0000000000000D+00  0.0000000000000D+00
   142  1.4100000000000D+00  0.0000000000000D+00  0.0000000000000D+00
   143  1.4200000000000D+00  0.0000000000000D+00  0.0000000000000D+00
   144  1.4300000000000D+00  0.0000000000000D+00  0.0000000000000D+00
   145  1.4400000000000D+00  0.0000000000000D+00  0.0000000000000D+00
   146  1.4500000000000D+00  0.0000000000000D+00  0.0000000000000D+00
   147  1.4600000000000D+00  0.0000000000000D+00  0.0000000000000D+00
   148  1.4700000000000D+00  0.0000000000000D+00  0.0000000000000D+00
   149  1.4800000000000D+00  0.0000000000000D+00  0.0000000000000D+00
   150  1.4900000000000D+00  0.0000000000000D+00  0.0000000000000D+00
   151  1.5000000000000D+00  0.0000000000000D+00  0.0000000000000D+00
   152  1.5100000000000D+00  0.0000000000000D+00  0.0000000000000D+00
   153  1.5200000000000D+00  0.0000000000000D+00  0.0000000000000D+00
   154  1.5300000000000D+00  0.0000000000000D+00  0.0000000000000D+00
   155  1.5400000000000D+00  0.0000000000000D+00  0.0000000000000D+00
   156  1.5500000000000D+00  0.0000000000000D+00  0.0000000000000D+00
   157  1.5600000000000D+00  0.0000000000000D+00  0.0000000000000D+00
   158  1.5700000000000D+00  0.0000000000000D+00  0.0000000000000D+00
   159  1.5800000000000D+00  0.0000000000000D+00  0.0000000000000D+00
   160  1.5900000000000D+00  0.0000000000000D+00  0.0000000000000D+00
   161  1.6000000000000D+00  0.0000000000000D+00  0.0000000000000D+00
   162  1.6100000000000D+00  0.0000000000000D+00  0.0000000000000D+00
   163  1.6200000000000D+00  0.0000000000000D+00  0.0000000000000D+00
   164  1.6300000000000D+00  0.0000000000000D+00  0.0000000000000D+00
   165  1.6400000000000D+00  0.0000000000000D+00  0.0000000000000D+00
   166  1.6500000000000D+00  0.0000000000000D+00  0.0000000000000D+00
   167  1.6600000000000D+00  0.0000000000000D+00  0.0000000000000D+00
   168  1.6700000000000D+00  0.0000000000000D+00  0.0000000000000D+00
   169  1.6800000000000D+00  0.0000000000000D+00  0.0000000000000D+00
   170  1.6900000000000D+00  0.0000000000000D+00  0.0000000000000D+00
   171  1.7000000000000D+00  0.0000000000000D+00  0.0000000000000D+00
   172  1.7100000000000D+00  0.0000000000000D+00  0.0000000000000D+00
   173  1.7200000000000D+00  0.0000000000000D+00  0.0000000000000D+00
   174  1.7300000000000D+00  0.0000000000000D+00  0.0000000000000D+00
   175  1.7400000000000D+00  0.0000000000000D+00  0.0000000000000D+00
   176  1.7500000000000D+00  0.0000000000000D+00  0.0000000000000D+00
   177  1.7600000000000D+00  0.0000000000000D+00  0.0000000000000D+00
   178  1.7700000000000D+00  0.0000000000000D+00  0.0000000000000D+00
   179  1.7800000000000D+00  0.0000000000000D+00  0.0000000000000D+00
   180  1.7900000000000D+00  0.0000000000000D+00  0.0000000000000D+00
   181  1.8000000000000D+00  0.0000000000000D+00  0.0000000000000D+00
   182  1.8100000000000D+00  0.0000000000000D+00  0.0000000000000D+00
   183  1.8200000000000D+00  0.0000000000000D+00  0.0000000000000D+00
   184  1.8300000000000D+00  0.0000000000000D+00  0.0000000000000D+00
   185  1.8400000000000D+00  0.0000000000000D+00  0.0000000000000D+00
   186  1.8500000000000D+00  0.0000000000000D+00  0.0000000000000D+00
   187  1.8600000000000D+00  0.0000000000000D+00  0.0000000000000D+00
   188  1.8700000000000D+00  0.0000000000000D+00  0.0000000000000D+00
   189  1.8800000000000D+00  0.0000000000000D+00  0.0000000000000D+00
   190  1.8900000000000D+00  0.0000000000000D+00  0.0000000000000D+00
   191  1.9000000000000D+00  0.0000000000000D+00  0.0000000000000D+00
   192  1.9100000000000D+00  0.0000000000000D+00  0.0000000000000D+00
   193  1.9200000000000D+00  0.0000000000000D+00  0.0000000000000D+00
   194  1.9300000000000D+00  0.0000000000000D+00  0.0000000000000D+00
   195  1.9400000000000D+00  0.0000000000000D+00  0.0000000000000D+00
   196  1.9500000000000D+00  0.0000000000000D+00  0.0000000000000D+00
   197  1.9600000000000D+00  0.0000000000000D+00  0.0000000000000D+00
   198  1.9700000000000D+00  0.0000000000000D+00  0.0000000000000D+00
   199  1.9800000000000D+00  0.0000000000000D+00  0.0000000000000D+00
   200  1.9900000000000D+00  0.0000000000000D+00  0.0000000000000D+00
   201  2.0000000000000D+00  0.0000000000000D+00  0.0000000000000D+00
   202  2.0100000000000D+00  0.0000000000000D+00  0.0000000000000D+00
   203  2.0200000000000D+00  0.0000000000000D+00  0.0000000000000D+00
   204  2.0300000000000D+00  0.0000000000000D+00  0.0000000000000D+00
   205  2.0400000000000D+00  0.0000000000000D+00  0.0000000000000D+00
   206  2.0500000000000D+00  0.0000000000000D+00  0.0000000000000D+00
   207  2.0600000000000D+00  0.0000000000000D+00  0.0000000000000D+00
   208  2.0700000000000D+00  0.0000000000000D+00  0.0000000000000D+00
   209  2.0800000000000D+00  0.0000000000000D+00  0.0000000000000D+00
   210  2.0900000000000D+00  0.0000000000000D+00  0.0000000000000D+00
   211  2.1000000000000D+00  0.0000000000000D+00  0.0000000000000D+00
   212  2.1100000000000D+00  0.0000000000000D+00  0.0000000000000D+00
   213  2.1200000000000D+00  0.0000000000000D+00  0.0000000000000D+00
   214  2.1300000000000D+00  0.0000000000000D+00  0.0000000000000D+00
   215  2.1400000000000D+00  0.0000000000000D+00  0.0000000000000D+00
   216  2.1500000000000D+00  0.0000000000000D+00  0.0000000000000D+00
   217  2.1600000000000D+00  0.0000000000000D+00  0.0000000000000D+00
   218  2.1700000000000D+00  0.0000000000000D+00  0.0000000000000D+00
   219  2.1800000000000D+00  0.0000000000000D+00  0.0000000000000D+00
   220  2.1900000000000D+00  0.0000000000000D+00  0.0000000000000D+00
   221  2.2000000000000D+00  0.0000000000000D+00  0.0000000000000D+00
   222  2.2100000000000D+00  0.0000000000000D+00  0.0000000000000D+00
   223  2.2200000000000D+00  0.0000000000000D+00  0.0000000000000D+00
   224  2.2300000000000D+00  0.0000000000000D+00  0.0000000000000D+00
   225  2.2400000000000D+00  0.0000000000000D+00  0.0000000000000D+00
   226  2.2500000000000D+00  0.0000000000000D+00  0.0000000000000D+00
   227  2.2600000000000D+00  0.0000000000000D+00  0.0000000000000D+00
   228  2.2700000000000D+00  0.0000000000000D+00  0.0000000000000D+00
   229  2.2800000000000D+00  0.0000000000000D+00  0.0000000000000D+00
   230  2.2900000000000D+00  0.0000000000000D+00  0.0000000000000D+00
   231  2.3000000000000D+00  0.0000000000000D+00  0.0000000000000D+00
   232  2.3100000000000D+00  0.0000000000000D+00  0.0000000000000D+00
   233  2.3200000000000D+00  0.0000000000000D+00  0.0000000000000D+00
   234  2.3300000000000D+00  0.0000000000000D+00  0.0000000000000D+00
   235  2.3400000000000D+00  0.0000000000000D+00  0.0000000000000D+00
   236  2.3500000000000D+00  0.0000000000000D+00  0.0000000000000D+00
   237  2.3600000000000D+00  0.0000000000000D+00  0.0000000000000D+00
   238  2.3700000000000D+00  0.0000000000000D+00  0.0000000000000D+00
   239  2.3800000000000D+00  0.0000000000000D+00  0.0000000000000D+00
   240  2.3900000000000D+00  0.0000000000000D+00  0.0000000000000D+00
   241  2.4000000000000D+00  0.0000000000000D+00  0.0000000000000D+00
   242  2.4100000000000D+00  0.0000000000000D+00  0.0000000000000D+00
   243  2.4200000000000D+00  0.0000000000000D+00  0.0000000000000D+00
   244  2.4300000000000D+00  0.0000000000000D+00  0.0000000000000D+00
   245  2.4400000000000D+00  0.0000000000000D+00  0.0000000000000D+00
   246  2.4500000000000D+00  0.0000000000000D+00  0.0000000000000D+00
   247  2.4600000000000D+00  0.0000000000000D+00  0.0000000000000D+00
   248  2.4700000000000D+00  0.0000000000000D+00  0.0000000000000D+00
   249  2.4800000000000D+00  0.0000000000000D+00  0.0000000000000D+00
   250  2.4900000000000D+00  0.0000000000000D+00  0.0000000000000D+00
   251  2.5000000000000D+00  0.0000000000000D+00  0.0000000000000D+00
   252  2.5100000000000D+00  0.0000000000000D+00  0.0000000000000D+00
   253  2.5200000000000D+00  0.0000000000000D+00  0.0000000000000D+00
   254  2.5300000000000D+00  0.0000000000000D+00  0.0000000000000D+00
   255  2.5400000000000D+00  0.0000000000000D+00  0.0000000000000D+00
   256  2.5500000000000D+00  0.0000000000000D+00  0.0000000000000D+00
   257  2.5600000000000D+00  0.0000000000000D+00  0.0000000000000D+00
   258  2.5700000000000D+00  0.0000000000000D+00  0.0000000000000D+00
   259  2.5800000000000D+00  0.0000000000000D+00  0.0000000000000D+00
   260  2.5900000000000D+00  0.0000000000000D+00  0.0000000000000D+00
   261  2.6000000000000D+00  0.0000000000000D+00  0.0000000000000D+00
   262  2.6100000000000D+00  0.0000000000000D+00  0.0000000000000D+00
   263  2.6200000000000D+00  0.0000000000000D+00  0.0000000000000D+00
   264  2.6300000000000D+00  0.0000000000000D+00  0.0000000000000D+00
   265  2.6400000000000D+00  0.0000000000000D+00  0.0000000000000D+00
   266  2.6500000000000D+00  0.0000000000000D+00  0.0000000000000D+00
   267  2.6600000000000D+00  0.0000000000000D+00  0.0000000000000D+00
   268  2.6700000000000D+00  0.0000000000000D+00  0.0000000000000D+00
   269  2.6800000000000D+00  0.0000000000000D+00  0.0000000000000D+00
   270  2.6900000000000D+00  0.0000000000000D+00  0.0000000000000D+00
   271  2.7000000000000D+00  0.0000000000000D+00  0.0000000000000D+00
   272  2.7100000000000D+00  0.0000000000000D+00  0.0000000000000D+00
   273  2.7200000000000D+00  0.0000000000000D+00  0.0000000000000D+00
   274  2.7300000000000D+00  0.0000000000000D+00  0.0000000000000D+00
   275  2.7400000000000D+00  0.0000000000000D+00  0.0000000000000D+00
   276  2.7500000000000D+00  0.0000000000000D+00  0.0000000000000D+00
   277  2.7600000000000D+00  0.0000000000000D+00  0.0000000000000D+00
   278  2.7700000000000D+00  0.0000000000000D+00  0.0000000000000D+00
   279  2.7800000000000D+00  0.0000000000000D+00  0.0000000000000D+00
   280  2.7900000000000D+00  0.0000000000000D+00  0.0000000000000D+00
   281  2.8000000000000D+00  0.0000000000000D+00  0.0000000000000D+00
   282  2.8100000000000D+00  0.0000000000000D+00  0.0000000000000D+00
   283  2.8200000000000D+00  0.0000000000000D+00  0.0000000000000D+00
   284  2.8300000000000D+00  0.0000000000000D+00  0.0000000000000D+00
   285  2.8400000000000D+00  0.0000000000000D+00  0.0000000000000D+00
   286  2.8500000000000D+00  0.0000000000000D+00  0.0000000000000D+00
   287  2.8600000000000D+00  0.0000000000000D+00  0.0000000000000D+00
   288  2.8700000000000D+00  0.0000000000000D+00  0.0000000000000D+00
   289  2.8800000000000D+00  0.0000000000000D+00  0.0000000000000D+00
   290  2.8900000000000D+00  0.0000000000000D+00  0.0000000000000D+00
   291  2.9000000000000D+00  0.0000000000000D+00  0.0000000000000D+00
   292  2.9100000000000D+00  0.0000000000000D+00  0.0000000000000D+00
   293  2.9200000000000D+00  0.0000000000000D+00  0.0000000000000D+00
   294  2.9300000000000D+00  0.0000000000000D+00  0.0000000000000D+00
   295  2.9400000000000D+00  0.0000000000000D+00  0.0000000000000D+00
   296  2.9500000000000D+00  0.0000000000000D+00  0.0000000000000D+00
   297  2.9600000000000D+00  0.0000000000000D+00  0.0000000000000D+00
   298  2.9700000000000D+00  0.0000000000000D+00  0.0000000000000D+00
   299  2.9800000000000D+00  0.0000000000000D+00  0.0000000000000D+00
   300  2.9900000000000D+00  0.0000000000000D+00  0.0000000000000D+00
   301  3.0000000000000D+00  0.0000000000000D+00  0.0000000000000D+00
   302  3.0100000000000D+00  0.0000000000000D+00  0.0000000000000D+00
   303  3.0200000000000D+00  0.0000000000000D+00  0.0000000000000D+00
   304  3.0300000000000D+00  0.0000000000000D+00  0.0000000000000D+00
   305  3.0400000000000D+00  0.0000000000000D+00  0.0000000000000D+00
   306  3.0500000000000D+00  0.0000000000000D+00  0.0000000000000D+00
   307  3.0600000000000D+00  0.0000000000000D+00  0.0000000000000D+00
   308  3.0700000000000D+00  0.0000000000000D+00  0.0000000000000D+00
   309  3.0800000000000D+00  0.0000000000000D+00  0.0000000000000D+00
   310  3.0900000000000D+00  0.0000000000000D+00  0.0000000000000D+00
   311  3.1000000000000D+00  0.0000000000000D+00  0.0000000000000D+00
   312  3.1100000000000D+00  0.0000000000000D+00  0.0000000000000D+00
   313  3.1200000000000D+00  0.0000000000000D+00  0.0000000000000D+00
   314  3.1300000000000D+00  0.0000000000000D+00  0.0000000000000D+00
   315  3.1400000000000D+00  0.0000000000000D+00  0.0000000000000D+00
   316  3.1500000000000D+00  0.0000000000000D+00  0.0000000000000D+00
   317  3.1600000000000D+00  0.0000000000000D+00  0.0000000000000D+00
   318  3.1700000000000D+00  0.0000000000000D+00  0.0000000000000D+00
   319  3.1800000000000D+00  0.0000000000000D+00  0.0000000000000D+00
   320  3.1900000000000D+00  0.0000000000000D+00  0.0000000000000D+00
   321  3.2000000000000D+00  0.0000000000000D+00  0.0000000000000D+00
   322  3.2100000000000D+00  0.0000000000000D+00  0.0000000000000D+00
   323  3.2200000000000D+00  0.0000000000000D+00  0.0000000000000D+00
   324  3.2300000000000D+00  0.0000000000000D+00  0.0000000000000D+00
   325  3.2400000000000D+00  0.0000000000000D+00  0.0000000000000D+00
   326  3.2500000000000D+00  0.0000000000000D+00  0.0000000000000D+00
   327  3.2600000000000D+00  0.0000000000000D+00  0.0000000000000D+00
   328  3.2700000000000D+00  0.0000000000000D+00  0.0000000000000D+00
   329  3.2800000000000D+00  0.0000000000000D+00  0.0000000000000D+00
   330  3.2900000000000D+00  0.0000000000000D+00  0.0000000000000D+00
   331  3.3000000000000D+00  0.0000000000000D+00  0.0000000000000D+00
   332  3.3100000000000D+00  0.0000000000000D+00  0.0000000000000D+00
   333  3.3200000000000D+00  0.0000000000000D+00  0.0000000000000D+00
   334  3.3300000000000D+00  0.0000000000000D+00  0.0000000000000D+00
   335  3.3400000000000D+00  0.0000000000000D+00  0.0000000000000D+00
   336  3.3500000000000D+00  0.0000000000000D+00  0.0000000000000D+00
   337  3.3600000000000D+00  0.0000000000000D+00  0.0000000000000D+00
   338  3.3700000000000D+00  0.0000000000000D+00  0.0000000000000D+00
   339  3.3800000000000D+00  0.0000000000000D+00  0.0000000000000D+00
   340  3.3900000000000D+00  0.0000000000000D+00  0.0000000000000D+00
   341  3.4000000000000D+00  0.0000000000000D+00  0.0000000000000D+00
   342  3.4100000000000D+00  0.0000000000000D+00  0.0000000000000D+00
   343  3.4200000000000D+00  0.0000000000000D+00  0.0000000000000D+00
   344  3.4300000000000D+00  0.0000000000000D+00  0.0000000000000D+00
   345  3.4400000000000D+00  0.0000000000000D+00  0.0000000000000D+00
   346  3.4500000000000D+00  0.0000000000000D+00  0.0000000000000D+00
   347  3.4600000000000D+00  0.0000000000000D+00  0.0000000000000D+00
   348  3.4700000000000D+00  0.0000000000000D+00  0.0000000000000D+00
   349  3.4800000000000D+00  0.0000000000000D+00  0.0000000000000D+00
   350  3.4900000000000D+00  0.0000000000000D+00  0.0000000000000D+00
   351  3.5000000000000D+00  0.0000000000000D+00  0.0000000000000D+00
   352  3.5100000000000D+00  0.0000000000000D+00  0.0000000000000D+00
   353  3.5200000000000D+00  0.0000000000000D+00  0.0000000000000D+00
   354  3.5300000000000D+00  0.0000000000000D+00  0.0000000000000D+00
   355  3.5400000000000D+00  0.0000000000000D+00  0.0000000000000D+00
   356  3.5500000000000D+00  0.0000000000000D+00  0.0000000000000D+00
   357  3.5600000000000D+00  0.0000000000000D+00  0.0000000000000D+00
   358  3.5700000000000D+00  0.0000000000000D+00  0.0000000000000D+00
   359  3.5800000000000D+00  0.0000000000000D+00  0.0000000000000D+00
   360  3.5900000000000D+00  0.0000000000000D+00  0.0000000000000D+00
   361  3.6000000000000D+00  0.0000000000000D+00  0.0000000000000D+00
   362  3.6100000000000D+00  0.0000000000000D+00  0.0000000000000D+00
   363  3.6200000000000D+00  0.0000000000000D+00  0.0000000000000D+00
   364  3.6300000000000D+00  0.0000000000000D+00  0.0000000000000D+00
   365  3.6400000000000D+00  0.0000000000000D+00  0.0000000000000D+00
   366  3.6500000000000D+00  0.0000000000000D+00  0.0000000000000D+00
   367  3.6600000000000D+00  0.0000000000000D+00  0.0000000000000D+00
   368  3.6700000000000D+00  0.0000000000000D+00  0.0000000000000D+00
   369  3.6800000000000D+00  0.0000000000000D+00  0.0000000000000D+00
   370  3.6900000000000D+00  0.0000000000000D+00  0.0000000000000D+00
   371  3.7000000000000D+00  0.0000000000000D+00  0.0000000000000D+00
   372  3.7100000000000D+00  0.0000000000000D+00  0.0000000000000D+00
   373  3.7200000000000D+00  0.0000000000000D+00  0.0000000000000D+00
   374  3.7300000000000D+00  0.0000000000000D+00  0.0000000000000D+00
   375  3.7400000000000D+00  0.0000000000000D+00  0.0000000000000D+00
   376  3.7500000000000D+00  0.0000000000000D+00  0.0000000000000D+00
   377  3.7600000000000D+00  0.0000000000000D+00  0.0000000000000D+00
   378  3.7700000000000D+00  0.0000000000000D+00  0.0000000000000D+00
   379  3.7800000000000D+00  0.0000000000000D+00  0.0000000000000D+00
   380  3.7900000000000D+00  0.0000000000000D+00  0.0000000000000D+00
   381  3.8000000000000D+00  0.0000000000000D+00  0.0000000000000D+00
   382  3.8100000000000D+00  0.0000000000000D+00  0.0000000000000D+00
   383  3.8200000000000D+00  0.0000000000000D+00  0.0000000000000D+00
   384  3.8300000000000D+00  0.0000000000000D+00  0.0000000000000D+00
   385  3.8400000000000D+00  0.0000000000000D+00  0.0000000000000D+00
   386  3.8500000000000D+00  0.0000000000000D+00  0.0000000000000D+00
   387  3.8600000000000D+00  0.0000000000000D+00  0.0000000000000D+00
   388  3.8700000000000D+00  0.0000000000000D+00  0.0000000000000D+00
   389  3.8800000000000D+00  0.0000000000000D+00  0.0000000000000D+00
   390  3.8900000000000D+00  0.0000000000000D+00  0.0000000000000D+00
   391  3.9000000000000D+00  0.0000000000000D+00  0.0000000000000D+00
   392  3.9100000000000D+00  0.0000000000000D+00  0.0000000000000D+00
   393  3.9200000000000D+00  0.0000000000000D+00  0.0000000000000D+00
   394  3.9300000000000D+00  0.0000000000000D+00  0.0000000000000D+00
   395  3.9400000000000D+00  0.0000000000000D+00  0.0000000000000D+00
   396  3.9500000000000D+00  0.0000000000000D+00  0.0000000000000D+00
   397  3.9600000000000D+00  0.0000000000000D+00  0.0000000000000D+00
   398  3.9700000000000D+00  0.0000000000000D+00  0.0000000000000D+00
   399  3.9800000000000D+00  0.0000000000000D+00  0.0000000000000D+00
   400  3.9900000000000D+00  0.0000000000000D+00  0.0000000000000D+00
   401  4.0000000000000D+00  0.0000000000000D+00  0.0000000000000D+00
   402  4.0100000000000D+00  0.0000000000000D+00  0.0000000000000D+00
   403  4.0200000000000D+00  0.0000000000000D+00  0.0000000000000D+00
   404  4.0300000000000D+00  0.0000000000000D+00  0.0000000000000D+00
   405  4.0400000000000D+00  0.0000000000000D+00  0.0000000000000D+00
   406  4.0500000000000D+00  0.0000000000000D+00  0.0000000000000D+00
   407  4.0600000000000D+00  0.0000000000000D+00  0.0000000000000D+00
   408  4.0700000000000D+00  0.0000000000000D+00  0.0000000000000D+00
   409  4.0800000000000D+00  0.0000000000000D+00  0.0000000000000D+00
   410  4.0900000000000D+00  0.0000000000000D+00  0.0000000000000D+00
   411  4.1000000000000D+00  0.0000000000000D+00  0.0000000000000D+00
   412  4.1100000000000D+00  0.0000000000000D+00  0.0000000000000D+00
   413  4.1200000000000D+00  0.0000000000000D+00  0.0000000000000D+00
   414  4.1300000000000D+00  0.0000000000000D+00  0.0000000000000D+00
   415  4.1400000000000D+00  0.0000000000000D+00  0.0000000000000D+00
   416  4.1500000000000D+00  0.0000000000000D+00  0.0000000000000D+00
   417  4.1600000000000D+00  0.0000000000000D+00  0.0000000000000D+00
   418  4.1700000000000D+00  0.0000000000000D+00  0.0000000000000D+00
   419  4.1800000000000D+00  0.0000000000000D+00  0.0000000000000D+00
   420  4.1900000000000D+00  0.0000000000000D+00  0.0000000000000D+00
   421  4.2000000000000D+00  0.0000000000000D+00  0.0000000000000D+00
   422  4.2100000000000D+00  0.0000000000000D+00  0.0000000000000D+00
   423  4.2200000000000D+00  0.0000000000000D+00  0.0000000000000D+00