Br    ONCVPSP-3.3.0  r_core=   1.81012   1.51356   1.92136
     35.0000     17.0000      220117    zatom,zion,pspd
     8      11   2     4   600     0    pspcod,pspxc,lmax,lloc,mmax,r2well
  5.99000000  0.00000000  0.00000000    rchrg fchrg qchrg
     2     2     2     0     0    nproj
     1     1           extension_switch
   0                         8.4797800787466D+00  8.8594338099033D-01
     1  0.0000000000000D+00  2.7367941246581D-11 -1.4754586441512D-11
     2  1.0000000000000D-02  3.6671759635610D-02 -1.3199170136744D-02
     3  2.0000000000000D-02  7.3335378817955D-02 -2.6402295271214D-02
     4  3.0000000000000D-02  1.0998256252630D-01 -3.9613107787900D-02
     5  4.0000000000000D-02  1.4660470775107D-01 -5.2834896135083D-02
     6  5.0000000000000D-02  1.8319275235768D-01 -6.6070286078729D-02
     7  6.0000000000000D-02  2.1973702736096D-01 -7.9321025812571D-02
     8  7.0000000000000D-02  2.5622711371471D-01 -9.2587776192652D-02
     9  8.0000000000000D-02  2.9265170469362D-01 -1.0586990734984D-01
    10  9.0000000000000D-02  3.2899847491111D-01 -1.1916530291519D-01
    11  1.0000000000000D-01  3.6525395697579D-01 -1.3247017307048D-01
    12  1.1000000000000D-01  4.0140342674357D-01 -1.4577887760962D-01
    13  1.2000000000000D-01  4.3743079806953D-01 -1.5908376016589D-01
    14  1.3000000000000D-01  4.7331852790634D-01 -1.7237499472488D-01
    15  1.4000000000000D-01  5.0904753253272D-01 -1.8564044550357D-01
    16  1.5000000000000D-01  5.4459711562755D-01 -1.9886554123203D-01
    17  1.6000000000000D-01  5.7994490883311D-01 -2.1203316482527D-01
    18  1.7000000000000D-01  6.1506682537419D-01 -2.2512355937983D-01
    19  1.8000000000000D-01  6.4993702722006D-01 -2.3811425137072D-01
    20  1.9000000000000D-01  6.8452790619299D-01 -2.5097999186140D-01
    21  2.0000000000000D-01  7.1881007934129D-01 -2.6369271647099D-01
    22  2.1000000000000D-01  7.5275239880683D-01 -2.7622152476929D-01
    23  2.2000000000000D-01  7.8632197632730D-01 -2.8853267969168D-01
    24  2.3000000000000D-01  8.1948422242293D-01 -3.0058962748242D-01
    25  2.4000000000000D-01  8.5220290022592D-01 -3.1235303858565D-01
    26  2.5000000000000D-01  8.8444019381946D-01 -3.2378086981042D-01
    27  2.6000000000000D-01  9.1615679086241D-01 -3.3482844799708D-01
    28  2.7000000000000D-01  9.4731197918585D-01 -3.4544857530948D-01
    29  2.8000000000000D-01  9.7786375695939D-01 -3.5559165617014D-01
    30  2.9000000000000D-01  1.0077689559388D+00 -3.6520584574398D-01
    31  3.0000000000000D-01  1.0369833772236D+00 -3.7423721976096D-01
    32  3.1000000000000D-01  1.0654619388708D+00 -3.8262996534972D-01
    33  3.2000000000000D-01  1.0931588346379D+00 -3.9032659243257D-01
    34  3.3000000000000D-01  1.1200277030502D+00 -3.9726816510932D-01
    35  3.4000000000000D-01  1.1460218059240D+00 -4.0339455233074D-01
    36  3.5000000000000D-01  1.1710942154110D+00 -4.0864469703745D-01
    37  3.6000000000000D-01  1.1951980085712D+00 -4.1295690281159D-01
    38  3.7000000000000D-01  1.2182864684311D+00 -4.1626913696293D-01
    39  3.8000000000000D-01  1.2403132904349D+00 -4.1851934884459D-01
    40  3.9000000000000D-01  1.2612327931584D+00 -4.1964580207038D-01
    41  4.0000000000000D-01  1.2810001321197D+00 -4.1958741918379D-01
    42  4.1000000000000D-01  1.2995715154958D+00 -4.1828413721187D-01
    43  4.2000000000000D-01  1.3169044205337D+00 -4.1567727242317D-01
    44  4.3000000000000D-01  1.3329578094297D+00 -4.1170989250200D-01
    45  4.4000000000000D-01  1.3476923434483D+00 -4.0632719424913D-01
    46  4.5000000000000D-01  1.3610705940508D+00 -3.9947688482499D-01
    47  4.6000000000000D-01  1.3730572498141D+00 -3.9110956446560D-01
    48  4.7000000000000D-01  1.3836193179349D+00 -3.8117910852406D-01
    49  4.8000000000000D-01  1.3927263191384D+00 -3.6964304662370D-01
    50  4.9000000000000D-01  1.4003504748398D+00 -3.5646293665278D-01
    51  5.0000000000000D-01  1.4064668854457D+00 -3.4160473128587D-01
    52  5.1000000000000D-01  1.4110536987218D+00 -3.2503913468547D-01
    53  5.2000000000000D-01  1.4140922672078D+00 -3.0674194701803D-01
    54  5.3000000000000D-01  1.4155672937141D+00 -2.8669439441371D-01
    55  5.4000000000000D-01  1.4154669639952D+00 -2.6488344200881D-01
    56  5.5000000000000D-01  1.4137830657642D+00 -2.4130208773335D-01
    57  5.6000000000000D-01  1.4105110932836D+00 -2.1594963454683D-01
    58  5.7000000000000D-01  1.4056503368438D+00 -1.8883193887960D-01
    59  5.8000000000000D-01  1.3992039565223D+00 -1.5996163310884D-01
    60  5.9000000000000D-01  1.3911790397001D+00 -1.2935831998508D-01
    61  6.0000000000000D-01  1.3815866419002D+00 -9.7048737028316D-02
    62  6.1000000000000D-01  1.3704418106010D+00 -6.3066889031438D-02
    63  6.2000000000000D-01  1.3577635917734D+00 -2.7454146943222D-02
    64  6.3000000000000D-01  1.3435750189793D+00  9.7406884468321D-03
    65  6.4000000000000D-01  1.3279030849675D+00  4.8461359435936D-02
    66  6.5000000000000D-01  1.3107786957961D+00  8.8644162182676D-02
    67  6.6000000000000D-01  1.2922366076061D+00  1.3021799637226D-01
    68  6.7000000000000D-01  1.2723153462636D+00  1.7310445461151D-01
    69  6.8000000000000D-01  1.2510571101827D+00  2.1721795217743D-01
    70  6.9000000000000D-01  1.2285076567305D+00  2.6246589751602D-01
    71  7.0000000000000D-01  1.2047161727041D+00  3.0874890365399D-01
    72  7.1000000000000D-01  1.1797351294566D+00  3.5596104044257D-01
    73  7.2000000000000D-01  1.1536201233277D+00  4.0399012730337D-01
    74  7.3000000000000D-01  1.1264297021175D+00  4.5271806589200D-01
    75  7.4000000000000D-01  1.0982251784112D+00  5.0202121183841D-01
    76  7.5000000000000D-01  1.0690704306344D+00  5.5177078446335D-01
    77  7.6000000000000D-01  1.0390316927807D+00  6.0183331311233D-01
    78  7.7000000000000D-01  1.0081773338133D+00  6.5207111849230D-01
    79  7.8000000000000D-01  9.7657762779205D-01  7.0234282714233D-01
    80  7.9000000000000D-01  9.4430451582661D-01  7.5250391692408D-01
    81  8.0000000000000D-01  9.1143136099383D-01  8.0240729117731D-01
    82  8.1000000000000D-01  8.7803269739143D-01  8.5190387895663D-01
    83  8.2000000000000D-01  8.4418397452664D-01  9.0084325854628D-01
    84  8.3000000000000D-01  8.0996129825774D-01  9.4907430124455D-01
    85  8.4000000000000D-01  7.7544116951896D-01  9.9644583221846D-01
    86  8.5000000000000D-01  7.4070022206485D-01  1.0428073050550D+00
    87  8.6000000000000D-01  7.0581496046902D-01  1.0880094864791D+00
    88  8.7000000000000D-01  6.7086149960342D-01  1.1319051475712D+00
    89  8.8000000000000D-01  6.3591530680976D-01  1.1743497577031D+00
    90  8.9000000000000D-01  6.0105094795286D-01  1.2152021773156D+00
    91  9.0000000000000D-01  5.6634183851716D-01  1.2543253455921D+00
    92  9.1000000000000D-01  5.3186000087395D-01  1.2915869590376D+00
    93  9.2000000000000D-01  4.9767582880594D-01  1.3268601369506D+00
    94  9.3000000000000D-01  4.6385786033030D-01  1.3600240697813D+00
    95  9.4000000000000D-01  4.3047255980968D-01  1.3909646464017D+00
    96  9.5000000000000D-01  3.9758411028486D-01  1.4195750563714D+00
    97  9.6000000000000D-01  3.6525421690151D-01  1.4457563633666D+00
    98  9.7000000000000D-01  3.3354192223899D-01  1.4694180460541D+00
    99  9.8000000000000D-01  3.0250343428093D-01  1.4904785028270D+00
   100  9.9000000000000D-01  2.7219196769448D-01  1.5088655169846D+00
   101  1.0000000000000D+00  2.4265759901164D-01  1.5245166791272D+00
   102  1.0100000000000D+00  2.1394713622877D-01  1.5373797637494D+00
   103  1.0200000000000D+00  1.8610400326231D-01  1.5474130572507D+00
   104  1.0300000000000D+00  1.5916813961752D-01  1.5545856348447D+00
   105  1.0400000000000D+00  1.3317591554865D-01  1.5588775841192D+00
   106  1.0500000000000D+00  1.0816006290740D-01  1.5602801732968D+00
   107  1.0600000000000D+00  8.4149621794034D-02  1.5587959625691D+00
   108  1.0700000000000D+00  6.1169903048229D-02  1.5544388571926D+00
   109  1.0800000000000D+00  3.9242466535889D-02  1.5472341013873D+00
   110  1.0900000000000D+00  1.8385115111814D-02  1.5372182124262D+00
   111  1.1000000000000D+00 -1.3880959335555D-03  1.5244388546452D+00
   112  1.1100000000000D+00 -2.0066834215265D-02  1.5089546535068D+00
   113  1.1200000000000D+00 -3.7644450716870D-02  1.4908349501802D+00
   114  1.1300000000000D+00 -5.4117925784377D-02  1.4701594975206D+00
   115  1.1400000000000D+00 -6.9487801107385D-02  1.4470180985987D+00
   116  1.1500000000000D+00 -8.3758098223019D-02  1.4215101894153D+00
   117  1.1600000000000D+00 -9.6936224118408D-02  1.3937443677072D+00
   118  1.1700000000000D+00 -1.0903286456641D-01  1.3638378701473D+00
   119  1.1800000000000D+00 -1.2006186586279D-01  1.3319160004814D+00
   120  1.1900000000000D+00 -1.3004010569199D-01  1.2981115115904D+00
   121  1.2000000000000D+00 -1.3898735387273D-01  1.2625639446899D+00
   122  1.2100000000000D+00 -1.4692612376537D-01  1.2254189291396D+00
   123  1.2200000000000D+00 -1.5388151515450D-01  1.1868274466303D+00
   124  1.2300000000000D+00 -1.5988104944092D-01  1.1469450637687D+00
   125  1.2400000000000D+00 -1.6495449798750D-01  1.1059311372403D+00
   126  1.2500000000000D+00 -1.6913370447893D-01  1.0639479959002D+00
   127  1.2600000000000D+00 -1.7245240216209D-01  1.0211601043770D+00
   128  1.2700000000000D+00 -1.7494602682717D-01  9.7773321280729D-01
   129  1.2800000000000D+00 -1.7665152639769D-01  9.3383349742535D-01
   130  1.2900000000000D+00 -1.7760716797945D-01  8.8962669684846D-01
   131  1.3000000000000D+00 -1.7785234320157D-01  8.4527724881987D-01
   132  1.3100000000000D+00 -1.7742737268960D-01  8.0094743227574D-01
   133  1.3200000000000D+00 -1.7637331045634D-01  7.5679651947372D-01
   134  1.3300000000000D+00 -1.7473174898805D-01  7.1297994283963D-01
   135  1.3400000000000D+00 -1.7254462579619D-01  6.6964848123914D-01
   136  1.3500000000000D+00 -1.6985403211868D-01  6.2694746995610D-01
   137  1.3600000000000D+00 -1.6670202447886D-01  5.8501603876031D-01
   138  1.3700000000000D+00 -1.6313043975388D-01  5.4398638221252D-01
   139  1.3800000000000D+00 -1.5918071431431D-01  5.0398306574297D-01
   140  1.3900000000000D+00 -1.5489370787456D-01  4.6512237157588D-01
   141  1.4000000000000D+00 -1.5030953251372D-01  4.2751168740908D-01
   142  1.4100000000000D+00 -1.4546738736683D-01  3.9124894095412D-01
   143  1.4200000000000D+00 -1.4040539946328D-01  3.5642208338151D-01
   144  1.4300000000000D+00 -1.3516047101159D-01  3.2310862329939D-01
   145  1.4400000000000D+00 -1.2976813358951D-01  2.9137521416944D-01
   146  1.4500000000000D+00 -1.2426240944430D-01  2.6127729605240D-01
   147  1.4600000000000D+00 -1.1867568019897D-01  2.3285879323890D-01
   148  1.4700000000000D+00 -1.1303856243074D-01  2.0615186478606D-01
   149  1.4800000000000D+00 -1.0737979367317D-01  1.8117672690834D-01
   150  1.4900000000000D+00 -1.0172612173375D-01  1.5794150636449D-01
   151  1.5000000000000D+00 -9.6102231182695D-02  1.3644230848343D-01
   152  1.5100000000000D+00 -9.0530561035082D-02  1.1666271776779D-01
   153  1.5200000000000D+00 -8.5031317781169D-02  9.8574349543029D-02
   154  1.5300000000000D+00 -7.9622691667695D-02  8.2138548443380D-02
   155  1.5400000000000D+00 -7.4321066904277D-02  6.7307888346249D-02
   156  1.5500000000000D+00 -6.9141348664441D-02  5.4028217900046D-02
   157  1.5600000000000D+00 -6.4097011047416D-02  4.2239178034930D-02
   158  1.5700000000000D+00 -5.9200096676842D-02  3.1874405423222D-02
   159  1.5800000000000D+00 -5.4461320085325D-02  2.2862360671407D-02
   160  1.5900000000000D+00 -4.9890124446377D-02  1.5126882027115D-02
   161  1.6000000000000D+00 -4.5494759419545D-02  8.5878643677914D-03
   162  1.6100000000000D+00 -4.1282356543904D-02  3.1619261691527D-03
   163  1.6200000000000D+00 -3.7259007518168D-02 -1.2369054559339D-03
   164  1.6300000000000D+00 -3.3429843819905D-02 -4.6965017626737D-03
   165  1.6400000000000D+00 -2.9799116884594D-02 -7.3059364193305D-03
   166  1.6500000000000D+00 -2.6370278208866D-02 -9.1547915515914D-03
   167  1.6600000000000D+00 -2.3146058668470D-02 -1.0332470658400D-02
   168  1.6700000000000D+00 -2.0128546435762D-02 -1.0927523272262D-02
   169  1.6800000000000D+00 -1.7319262868226D-02 -1.1026985951462D-02
   170  1.6900000000000D+00 -1.4719235779308D-02 -1.0715744360505D-02
   171  1.7000000000000D+00 -1.2329069542603D-02 -1.0075920633345D-02
   172  1.7100000000000D+00 -1.0149011490765D-02 -9.1862905032265D-03
   173  1.7200000000000D+00 -8.1790141239674D-03 -8.1217340137002D-03
   174  1.7300000000000D+00 -6.4187926747402D-03 -6.9527237281692D-03
   175  1.7400000000000D+00 -4.8678775763507D-03 -5.7448540605932D-03
   176  1.7500000000000D+00 -3.5259440467304D-03 -4.5595749357611D-03
   177  1.7600000000000D+00 -2.3920124570313D-03 -3.4503597059231D-03
   178  1.7700000000000D+00 -1.4636673815734D-03 -2.4561833428745D-03
   179  1.7800000000000D+00 -7.4132900899866D-04 -1.6246518633736D-03
   180  1.7900000000000D+00 -2.2915102207653D-04 -1.0386554993568D-03
   181  1.8000000000000D+00  7.7241346717025D-05 -7.2205250643170D-04
   182  1.8100000000000D+00  1.8702948897832D-04 -5.1518065315473D-04
   183  1.8200000000000D+00  1.2739999629949D-04 -2.5519584051407D-04
   184  1.8300000000000D+00  1.7427432672097D-05 -3.0696930550957D-05
   185  1.8400000000000D+00 -2.6808561527504D-05  4.4691300963515D-05
   186  1.8500000000000D+00 -1.1821350135411D-05  1.8749172792093D-05
   187  1.8600000000000D+00  4.8688079948958D-06 -8.9625796373458D-06
   188  1.8700000000000D+00  4.0948731602983D-06 -7.3712509787855D-06
   189  1.8800000000000D+00 -3.0932879268155D-07  8.4706909802058D-07
   190  1.8900000000000D+00 -4.7929009853281D-07  1.3124928589248D-06
   191  1.9000000000000D+00  0.0000000000000D+00  0.0000000000000D+00
   192  1.9100000000000D+00  0.0000000000000D+00  0.0000000000000D+00
   193  1.9200000000000D+00  0.0000000000000D+00  0.0000000000000D+00
   194  1.9300000000000D+00  0.0000000000000D+00  0.0000000000000D+00
   195  1.9400000000000D+00  0.0000000000000D+00  0.0000000000000D+00
   196  1.9500000000000D+00  0.0000000000000D+00  0.0000000000000D+00
   197  1.9600000000000D+00  0.0000000000000D+00  0.0000000000000D+00
   198  1.9700000000000D+00  0.0000000000000D+00  0.0000000000000D+00
   199  1.9800000000000D+00  0.0000000000000D+00  0.0000000000000D+00
   200  1.9900000000000D+00  0.0000000000000D+00  0.0000000000000D+00
   201  2.0000000000000D+00  0.0000000000000D+00  0.0000000000000D+00
   202  2.0100000000000D+00  0.0000000000000D+00  0.0000000000000D+00
   203  2.0200000000000D+00  0.0000000000000D+00  0.0000000000000D+00
   204  2.0300000000000D+00  0.0000000000000D+00  0.0000000000000D+00
   205  2.0400000000000D+00  0.0000000000000D+00  0.0000000000000D+00
   206  2.0500000000000D+00  0.0000000000000D+00  0.0000000000000D+00
   207  2.0600000000000D+00  0.0000000000000D+00  0.0000000000000D+00
   208  2.0700000000000D+00  0.0000000000000D+00  0.0000000000000D+00
   209  2.0800000000000D+00  0.0000000000000D+00  0.0000000000000D+00
   210  2.0900000000000D+00  0.0000000000000D+00  0.0000000000000D+00
   211  2.1000000000000D+00  0.0000000000000D+00  0.0000000000000D+00
   212  2.1100000000000D+00  0.0000000000000D+00  0.0000000000000D+00
   213  2.1200000000000D+00  0.0000000000000D+00  0.0000000000000D+00
   214  2.1300000000000D+00  0.0000000000000D+00  0.0000000000000D+00
   215  2.1400000000000D+00  0.0000000000000D+00  0.0000000000000D+00
   216  2.1500000000000D+00  0.0000000000000D+00  0.0000000000000D+00
   217  2.1600000000000D+00  0.0000000000000D+00  0.0000000000000D+00
   218  2.1700000000000D+00  0.0000000000000D+00  0.0000000000000D+00
   219  2.1800000000000D+00  0.0000000000000D+00  0.0000000000000D+00
   220  2.1900000000000D+00  0.0000000000000D+00  0.0000000000000D+00
   221  2.2000000000000D+00  0.0000000000000D+00  0.0000000000000D+00
   222  2.2100000000000D+00  0.0000000000000D+00  0.0000000000000D+00
   223  2.2200000000000D+00  0.0000000000000D+00  0.0000000000000D+00
   224  2.2300000000000D+00  0.0000000000000D+00  0.0000000000000D+00
   225  2.2400000000000D+00  0.0000000000000D+00  0.0000000000000D+00
   226  2.2500000000000D+00  0.0000000000000D+00  0.0000000000000D+00
   227  2.2600000000000D+00  0.0000000000000D+00  0.0000000000000D+00
   228  2.2700000000000D+00  0.0000000000000D+00  0.0000000000000D+00
   229  2.2800000000000D+00  0.0000000000000D+00  0.0000000000000D+00
   230  2.2900000000000D+00  0.0000000000000D+00  0.0000000000000D+00
   231  2.3000000000000D+00  0.0000000000000D+00  0.0000000000000D+00
   232  2.3100000000000D+00  0.0000000000000D+00  0.0000000000000D+00
   233  2.3200000000000D+00  0.0000000000000D+00  0.0000000000000D+00
   234  2.3300000000000D+00  0.0000000000000D+00  0.0000000000000D+00
   235  2.3400000000000D+00  0.0000000000000D+00  0.0000000000000D+00
   236  2.3500000000000D+00  0.0000000000000D+00  0.0000000000000D+00
   237  2.3600000000000D+00  0.0000000000000D+00  0.0000000000000D+00
   238  2.3700000000000D+00  0.0000000000000D+00  0.0000000000000D+00
   239  2.3800000000000D+00  0.0000000000000D+00  0.0000000000000D+00
   240  2.3900000000000D+00  0.0000000000000D+00  0.0000000000000D+00
   241  2.4000000000000D+00  0.0000000000000D+00  0.0000000000000D+00
   242  2.4100000000000D+00  0.0000000000000D+00  0.0000000000000D+00
   243  2.4200000000000D+00  0.0000000000000D+00  0.0000000000000D+00
   244  2.4300000000000D+00  0.0000000000000D+00  0.0000000000000D+00
   245  2.4400000000000D+00  0.0000000000000D+00  0.0000000000000D+00
   246  2.4500000000000D+00  0.0000000000000D+00  0.0000000000000D+00
   247  2.4600000000000D+00  0.0000000000000D+00  0.0000000000000D+00
   248  2.4700000000000D+00  0.0000000000000D+00  0.0000000000000D+00
   249  2.4800000000000D+00  0.0000000000000D+00  0.0000000000000D+00
   250  2.4900000000000D+00  0.0000000000000D+00  0.0000000000000D+00
   251  2.5000000000000D+00  0.0000000000000D+00  0.0000000000000D+00
   252  2.5100000000000D+00  0.0000000000000D+00  0.0000000000000D+00
   253  2.5200000000000D+00  0.0000000000000D+00  0.0000000000000D+00
   254  2.5300000000000D+00  0.0000000000000D+00  0.0000000000000D+00
   255  2.5400000000000D+00  0.0000000000000D+00  0.0000000000000D+00
   256  2.5500000000000D+00  0.0000000000000D+00  0.0000000000000D+00
   257  2.5600000000000D+00  0.0000000000000D+00  0.0000000000000D+00
   258  2.5700000000000D+00  0.0000000000000D+00  0.0000000000000D+00
   259  2.5800000000000D+00  0.0000000000000D+00  0.0000000000000D+00
   260  2.5900000000000D+00  0.0000000000000D+00  0.0000000000000D+00
   261  2.6000000000000D+00  0.0000000000000D+00  0.0000000000000D+00
   262  2.6100000000000D+00  0.0000000000000D+00  0.0000000000000D+00
   263  2.6200000000000D+00  0.0000000000000D+00  0.0000000000000D+00
   264  2.6300000000000D+00  0.0000000000000D+00  0.0000000000000D+00
   265  2.6400000000000D+00  0.0000000000000D+00  0.0000000000000D+00
   266  2.6500000000000D+00  0.0000000000000D+00  0.0000000000000D+00
   267  2.6600000000000D+00  0.0000000000000D+00  0.0000000000000D+00
   268  2.6700000000000D+00  0.0000000000000D+00  0.0000000000000D+00
   269  2.6800000000000D+00  0.0000000000000D+00  0.0000000000000D+00
   270  2.6900000000000D+00  0.0000000000000D+00  0.0000000000000D+00
   271  2.7000000000000D+00  0.0000000000000D+00  0.0000000000000D+00
   272  2.7100000000000D+00  0.0000000000000D+00  0.0000000000000D+00
   273  2.7200000000000D+00  0.0000000000000D+00  0.0000000000000D+00
   274  2.7300000000000D+00  0.0000000000000D+00  0.0000000000000D+00
   275  2.7400000000000D+00  0.0000000000000D+00  0.0000000000000D+00
   276  2.7500000000000D+00  0.0000000000000D+00  0.0000000000000D+00
   277  2.7600000000000D+00  0.0000000000000D+00  0.0000000000000D+00
   278  2.7700000000000D+00  0.0000000000000D+00  0.0000000000000D+00
   279  2.7800000000000D+00  0.0000000000000D+00  0.0000000000000D+00
   280  2.7900000000000D+00  0.0000000000000D+00  0.0000000000000D+00
   281  2.8000000000000D+00  0.0000000000000D+00  0.0000000000000D+00
   282  2.8100000000000D+00  0.0000000000000D+00  0.0000000000000D+00
   283  2.8200000000000D+00  0.0000000000000D+00  0.0000000000000D+00
   284  2.8300000000000D+00  0.0000000000000D+00  0.0000000000000D+00
   285  2.8400000000000D+00  0.0000000000000D+00  0.0000000000000D+00
   286  2.8500000000000D+00  0.0000000000000D+00  0.0000000000000D+00
   287  2.8600000000000D+00  0.0000000000000D+00  0.0000000000000D+00
   288  2.8700000000000D+00  0.0000000000000D+00  0.0000000000000D+00
   289  2.8800000000000D+00  0.0000000000000D+00  0.0000000000000D+00
   290  2.8900000000000D+00  0.0000000000000D+00  0.0000000000000D+00
   291  2.9000000000000D+00  0.0000000000000D+00  0.0000000000000D+00
   292  2.9100000000000D+00  0.0000000000000D+00  0.0000000000000D+00
   293  2.9200000000000D+00  0.0000000000000D+00  0.0000000000000D+00
   294  2.9300000000000D+00  0.0000000000000D+00  0.0000000000000D+00
   295  2.9400000000000D+00  0.0000000000000D+00  0.0000000000000D+00
   296  2.9500000000000D+00  0.0000000000000D+00  0.0000000000000D+00
   297  2.9600000000000D+00  0.0000000000000D+00  0.0000000000000D+00
   298  2.9700000000000D+00  0.0000000000000D+00  0.0000000000000D+00
   299  2.9800000000000D+00  0.0000000000000D+00  0.0000000000000D+00
   300  2.9900000000000D+00  0.0000000000000D+00  0.0000000000000D+00
   301  3.0000000000000D+00  0.0000000000000D+00  0.0000000000000D+00
   302  3.0100000000000D+00  0.0000000000000D+00  0.0000000000000D+00
   303  3.0200000000000D+00  0.0000000000000D+00  0.0000000000000D+00
   304  3.0300000000000D+00  0.0000000000000D+00  0.0000000000000D+00
   305  3.0400000000000D+00  0.0000000000000D+00  0.0000000000000D+00
   306  3.0500000000000D+00  0.0000000000000D+00  0.0000000000000D+00
   307  3.0600000000000D+00  0.0000000000000D+00  0.0000000000000D+00
   308  3.0700000000000D+00  0.0000000000000D+00  0.0000000000000D+00
   309  3.0800000000000D+00  0.0000000000000D+00  0.0000000000000D+00
   310  3.0900000000000D+00  0.0000000000000D+00  0.0000000000000D+00
   311  3.1000000000000D+00  0.0000000000000D+00  0.0000000000000D+00
   312  3.1100000000000D+00  0.0000000000000D+00  0.0000000000000D+00
   313  3.1200000000000D+00  0.0000000000000D+00  0.0000000000000D+00
   314  3.1300000000000D+00  0.0000000000000D+00  0.0000000000000D+00
   315  3.1400000000000D+00  0.0000000000000D+00  0.0000000000000D+00
   316  3.1500000000000D+00  0.0000000000000D+00  0.0000000000000D+00
   317  3.1600000000000D+00  0.0000000000000D+00  0.0000000000000D+00
   318  3.1700000000000D+00  0.0000000000000D+00  0.0000000000000D+00
   319  3.1800000000000D+00  0.0000000000000D+00  0.0000000000000D+00
   320  3.1900000000000D+00  0.0000000000000D+00  0.0000000000000D+00
   321  3.2000000000000D+00  0.0000000000000D+00  0.0000000000000D+00
   322  3.2100000000000D+00  0.0000000000000D+00  0.0000000000000D+00
   323  3.2200000000000D+00  0.0000000000000D+00  0.0000000000000D+00
   324  3.2300000000000D+00  0.0000000000000D+00  0.0000000000000D+00
   325  3.2400000000000D+00  0.0000000000000D+00  0.0000000000000D+00
   326  3.2500000000000D+00  0.0000000000000D+00  0.0000000000000D+00
   327  3.2600000000000D+00  0.0000000000000D+00  0.0000000000000D+00
   328  3.2700000000000D+00  0.0000000000000D+00  0.0000000000000D+00
   329  3.2800000000000D+00  0.0000000000000D+00  0.0000000000000D+00
   330  3.2900000000000D+00  0.0000000000000D+00  0.0000000000000D+00
   331  3.3000000000000D+00  0.0000000000000D+00  0.0000000000000D+00
   332  3.3100000000000D+00  0.0000000000000D+00  0.0000000000000D+00
   333  3.3200000000000D+00  0.0000000000000D+00  0.0000000000000D+00
   334  3.3300000000000D+00  0.0000000000000D+00  0.0000000000000D+00
   335  3.3400000000000D+00  0.0000000000000D+00  0.0000000000000D+00
   336  3.3500000000000D+00  0.0000000000000D+00  0.0000000000000D+00
   337  3.3600000000000D+00  0.0000000000000D+00  0.0000000000000D+00
   338  3.3700000000000D+00  0.0000000000000D+00  0.0000000000000D+00
   339  3.3800000000000D+00  0.0000000000000D+00  0.0000000000000D+00
   340  3.3900000000000D+00  0.0000000000000D+00  0.0000000000000D+00
   341  3.4000000000000D+00  0.0000000000000D+00  0.0000000000000D+00
   342  3.4100000000000D+00  0.0000000000000D+00  0.0000000000000D+00
   343  3.4200000000000D+00  0.0000000000000D+00  0.0000000000000D+00
   344  3.4300000000000D+00  0.0000000000000D+00  0.0000000000000D+00
   345  3.4400000000000D+00  0.0000000000000D+00  0.0000000000000D+00
   346  3.4500000000000D+00  0.0000000000000D+00  0.0000000000000D+00
   347  3.4600000000000D+00  0.0000000000000D+00  0.0000000000000D+00
   348  3.4700000000000D+00  0.0000000000000D+00  0.0000000000000D+00
   349  3.4800000000000D+00  0.0000000000000D+00  0.0000000000000D+00
   350  3.4900000000000D+00  0.0000000000000D+00  0.0000000000000D+00
   351  3.5000000000000D+00  0.0000000000000D+00  0.0000000000000D+00
   352  3.5100000000000D+00  0.0000000000000D+00  0.0000000000000D+00
   353  3.5200000000000D+00  0.0000000000000D+00  0.0000000000000D+00
   354  3.5300000000000D+00  0.0000000000000D+00  0.0000000000000D+00
   355  3.5400000000000D+00  0.0000000000000D+00  0.0000000000000D+00
   356  3.5500000000000D+00  0.0000000000000D+00  0.0000000000000D+00
   357  3.5600000000000D+00  0.0000000000000D+00  0.0000000000000D+00
   358  3.5700000000000D+00  0.0000000000000D+00  0.0000000000000D+00
   359  3.5800000000000D+00  0.0000000000000D+00  0.0000000000000D+00
   360  3.5900000000000D+00  0.0000000000000D+00  0.0000000000000D+00
   361  3.6000000000000D+00  0.0000000000000D+00  0.0000000000000D+00
   362  3.6100000000000D+00  0.0000000000000D+00  0.0000000000000D+00
   363  3.6200000000000D+00  0.0000000000000D+00  0.0000000000000D+00
   364  3.6300000000000D+00  0.0000000000000D+00  0.0000000000000D+00
   365  3.6400000000000D+00  0.0000000000000D+00  0.0000000000000D+00
   366  3.6500000000000D+00  0.0000000000000D+00  0.0000000000000D+00
   367  3.6600000000000D+00  0.0000000000000D+00  0.0000000000000D+00
   368  3.6700000000000D+00  0.0000000000000D+00  0.0000000000000D+00
   369  3.6800000000000D+00  0.0000000000000D+00  0.0000000000000D+00
   370  3.6900000000000D+00  0.0000000000000D+00  0.0000000000000D+00
   371  3.7000000000000D+00  0.0000000000000D+00  0.0000000000000D+00
   372  3.7100000000000D+00  0.0000000000000D+00  0.0000000000000D+00
   373  3.7200000000000D+00  0.0000000000000D+00  0.0000000000000D+00
   374  3.7300000000000D+00  0.0000000000000D+00  0.0000000000000D+00
   375  3.7400000000000D+00  0.0000000000000D+00  0.0000000000000D+00
   376  3.7500000000000D+00  0.0000000000000D+00  0.0000000000000D+00
   377  3.7600000000000D+00  0.0000000000000D+00  0.0000000000000D+00
   378  3.7700000000000D+00  0.0000000000000D+00  0.0000000000000D+00
   379  3.7800000000000D+00  0.0000000000000D+00  0.0000000000000D+00
   380  3.7900000000000D+00  0.0000000000000D+00  0.0000000000000D+00
   381  3.8000000000000D+00  0.0000000000000D+00  0.0000000000000D+00
   382  3.8100000000000D+00  0.0000000000000D+00  0.0000000000000D+00
   383  3.8200000000000D+00  0.0000000000000D+00  0.0000000000000D+00
   384  3.8300000000000D+00  0.0000000000000D+00  0.0000000000000D+00
   385  3.8400000000000D+00  0.0000000000000D+00  0.0000000000000D+00
   386  3.8500000000000D+00  0.0000000000000D+00  0.0000000000000D+00
   387  3.8600000000000D+00  0.0000000000000D+00  0.0000000000000D+00
   388  3.8700000000000D+00  0.0000000000000D+00  0.0000000000000D+00
   389  3.8800000000000D+00  0.0000000000000D+00  0.0000000000000D+00
   390  3.8900000000000D+00  0.0000000000000D+00  0.0000000000000D+00
   391  3.9000000000000D+00  0.0000000000000D+00  0.0000000000000D+00
   392  3.9100000000000D+00  0.0000000000000D+00  0.0000000000000D+00
   393  3.9200000000000D+00  0.0000000000000D+00  0.0000000000000D+00
   394  3.9300000000000D+00  0.0000000000000D+00  0.0000000000000D+00
   395  3.9400000000000D+00  0.0000000000000D+00  0.0000000000000D+00
   396  3.9500000000000D+00  0.0000000000000D+00  0.0000000000000D+00
   397  3.9600000000000D+00  0.0000000000000D+00  0.0000000000000D+00
   398  3.9700000000000D+00  0.0000000000000D+00  0.0000000000000D+00
   399  3.9800000000000D+00  0.0000000000000D+00  0.0000000000000D+00
   400  3.9900000000000D+00  0.0000000000000D+00  0.0000000000000D+00
   401  4.0000000000000D+00  0.0000000000000D+00  0.0000000000000D+00
   402  4.0100000000000D+00  0.0000000000000D+00  0.0000000000000D+00
   403  4.0200000000000D+00  0.0000000000000D+00  0.0000000000000D+00
   404  4.0300000000000D+00  0.0000000000000D+00  0.0000000000000D+00
   405  4.0400000000000D+00  0.0000000000000D+00  0.0000000000000D+00
   406  4.0500000000000D+00  0.0000000000000D+00  0.0000000000000D+00
   407  4.0600000000000D+00  0.0000000000000D+00  0.0000000000000D+00
   408  4.0700000000000D+00  0.0000000000000D+00  0.0000000000000D+00
   409  4.0800000000000D+00  0.0000000000000D+00  0.0000000000000D+00
   410  4.0900000000000D+00  0.0000000000000D+00  0.0000000000000D+00
   411  4.1000000000000D+00  0.0000000000000D+00  0.0000000000000D+00
   412  4.1100000000000D+00  0.0000000000000D+00  0.0000000000000D+00
   413  4.1200000000000D+00  0.0000000000000D+00  0.0000000000000D+00
   414  4.1300000000000D+00  0.0000000000000D+00  0.0000000000000D+00
   415  4.1400000000000D+00  0.0000000000000D+00  0.0000000000000D+00
   416  4.1500000000000D+00  0.0000000000000D+00  0.0000000000000D+00
   417  4.1600000000000D+00  0.0000000000000D+00  0.0000000000000D+00
   418  4.1700000000000D+00  0.0000000000000D+00  0.0000000000000D+00
   419  4.1800000000000D+00  0.0000000000000D+00  0.0000000000000D+00
   420  4.1900000000000D+00  0.0000000000000D+00  0.0000000000000D+00
   421  4.2000000000000D+00  0.0000000000000D+00  0.0000000000000D+00
   422  4.2100000000000D+00  0.0000000000000D+00  0.0000000000000D+00