Br    ONCVPSP-3.3.0  r_core=   1.20662   1.40902   1.60658
     35.0000     25.0000      220117    zatom,zion,pspd
     8      11   2     4   600     0    pspcod,pspxc,lmax,lloc,mmax,r2well
  5.99000000  0.00000000  0.00000000    rchrg fchrg qchrg
     2     2     2     0     0    nproj
     1     1           extension_switch
   0                         3.4373059885515D+00 -3.1484248659535D+00
     1  0.0000000000000D+00  2.1324433330250D-09 -3.2376934466782D-11
     2  1.0000000000000D-02  9.9091124327844D-02  5.0906851090009D-02
     3  2.0000000000000D-02  1.9779359944671D-01  1.0176120003138D-01
     4  3.0000000000000D-02  2.9571893213892D-01  1.5251052578977D-01
     5  4.0000000000000D-02  3.9247896880745D-01  2.0310226978612D-01
     6  5.0000000000000D-02  4.8768613382758D-01  2.5348381769971D-01
     7  6.0000000000000D-02  5.8095374860634D-01  3.0360248198574D-01
     8  7.0000000000000D-02  6.7189645570704D-01  3.5340548538480D-01
     9  8.0000000000000D-02  7.6013077026404D-01  4.0283994573435D-01
    10  9.0000000000000D-02  8.4527577830756D-01  4.5185286243067D-01
    11  1.0000000000000D-01  9.2695399858059D-01  5.0039110493439D-01
    12  1.1000000000000D-01  1.0047924210042D+00  5.4840140376089D-01
    13  1.2000000000000D-01  1.0784237311879D+00  5.9583034444831D-01
    14  1.3000000000000D-01  1.1474877263421D+00  6.4262436504795D-01
    15  1.4000000000000D-01  1.2116329237001D+00  6.8872975773463D-01
    16  1.5000000000000D-01  1.2705183581518D+00  7.3409267518396D-01
    17  1.6000000000000D-01  1.3238155613117D+00  7.7865914241031D-01
    18  1.7000000000000D-01  1.3712107097560D+00  8.2237507479963D-01
    19  1.8000000000000D-01  1.4124069257336D+00  8.6518630310469D-01
    20  1.9000000000000D-01  1.4471267093743D+00  9.0703860619453D-01
    21  2.0000000000000D-01  1.4751144773301D+00  9.4787775236340D-01
    22  2.1000000000000D-01  1.4961391789908D+00  9.8764955000557D-01
    23  2.2000000000000D-01  1.5099969579565D+00  1.0262999084499D+00
    24  2.3000000000000D-01  1.5165138234007D+00  1.0637749097205D+00
    25  2.4000000000000D-01  1.5155482933814D+00  1.1000208919461D+00
    26  2.5000000000000D-01  1.5069939700935D+00  1.1349845450811D+00
    27  2.6000000000000D-01  1.4907820055606D+00  1.1686130195217D+00
    28  2.7000000000000D-01  1.4668834153758D+00  1.2008540481072D+00
    29  2.8000000000000D-01  1.4353111978386D+00  1.2316560818812D+00
    30  2.9000000000000D-01  1.3961222162434D+00  1.2609684398582D+00
    31  3.0000000000000D-01  1.3494188031363D+00  1.2887414728913D+00
    32  3.1000000000000D-01  1.2953500471076D+00  1.3149267415762D+00
    33  3.2000000000000D-01  1.2341127250931D+00  1.3394772079446D+00
    34  3.3000000000000D-01  1.1659518462208D+00  1.3623474405111D+00
    35  3.4000000000000D-01  1.0911607769247D+00  1.3834938320348D+00
    36  3.5000000000000D-01  1.0100809213255D+00  1.4028748291422D+00
    37  3.6000000000000D-01  9.2310093569304D-01  1.4204511727441D+00
    38  3.7000000000000D-01  8.3065546112268D-01  1.4361861479514D+00
    39  3.8000000000000D-01  7.3322336428787D-01  1.4500458419757D+00
    40  3.9000000000000D-01  6.3132548223294D-01  1.4619994082763D+00
    41  4.0000000000000D-01  5.2552187354099D-01  1.4720193350020D+00
    42  4.1000000000000D-01  4.1640858478589D-01  1.4800817155660D+00
    43  4.2000000000000D-01  3.0461394785725D-01  1.4861665190016D+00
    44  4.3000000000000D-01  1.9079443044397D-01  1.4902578575638D+00
    45  4.4000000000000D-01  7.5630068580546D-02  1.4923442488867D+00
    46  4.5000000000000D-01 -4.0180483396253D-02  1.4924188698665D+00
    47  4.6000000000000D-01 -1.5592524395913D-01  1.4904797993332D+00
    48  4.7000000000000D-01 -2.7088448924216D-01  1.4865302464896D+00
    49  4.8000000000000D-01 -3.8433657895369D-01  1.4805787620494D+00
    50  4.9000000000000D-01 -4.9556396586660D-01  1.4726394289913D+00
    51  5.0000000000000D-01 -6.0385932722463D-01  1.4627320298660D+00
    52  5.1000000000000D-01 -7.0853175292872D-01  1.4508821876565D+00
    53  5.2000000000000D-01 -8.0891292266337D-01  1.4371214772893D+00
    54  5.3000000000000D-01 -9.0436320224764D-01  1.4214875050377D+00
    55  5.4000000000000D-01 -9.9427758849527D-01  1.4040239532373D+00
    56  5.5000000000000D-01 -1.0780914317831D+00  1.3847805879583D+00
    57  5.6000000000000D-01 -1.1552858663748D+00  1.3638132275406D+00
    58  5.7000000000000D-01 -1.2253928803511D+00  1.3411836701987D+00
    59  5.8000000000000D-01 -1.2879999597386D+00  1.3169595792398D+00
    60  5.9000000000000D-01 -1.3427542451157D+00  1.2912143248110D+00
    61  6.0000000000000D-01 -1.3893661435483D+00  1.2640267814920D+00
    62  6.1000000000000D-01 -1.4276123441713D+00  1.2354810814803D+00
    63  6.2000000000000D-01 -1.4573381919547D+00  1.2056663235657D+00
    64  6.3000000000000D-01 -1.4784593812215D+00  1.1746762385626D+00
    65  6.4000000000000D-01 -1.4909629381068D+00  1.1426088123510D+00
    66  6.5000000000000D-01 -1.4949074693726D+00  1.1095658681662D+00
    67  6.6000000000000D-01 -1.4904226636968D+00  1.0756526102716D+00
    68  6.7000000000000D-01 -1.4777080405739D+00  1.0409771316332D+00
    69  6.8000000000000D-01 -1.4570309512588D+00  1.0056498886926D+00
    70  6.9000000000000D-01 -1.4287238455945D+00  9.6978314679392D-01
    71  7.0000000000000D-01 -1.3931808279533D+00  9.3349040025594D-01
    72  7.1000000000000D-01 -1.3508535347554D+00  8.9688577148353D-01
    73  7.2000000000000D-01 -1.3022463750363D+00  8.6008339388475D-01
    74  7.3000000000000D-01 -1.2479111841114D+00  8.2319678368463D-01
    75  7.4000000000000D-01 -1.1884413484420D+00  7.8633820600691D-01
    76  7.5000000000000D-01 -1.1244654672311D+00  7.4961804082104D-01
    77  7.6000000000000D-01 -1.0566406229405D+00  7.1314415452125D-01
    78  7.7000000000000D-01 -9.8564533870214D-01  6.7702128301227D-01
    79  7.8000000000000D-01 -9.1217230546909D-01  6.4135043221985D-01
    80  7.9000000000000D-01 -8.3692096553096D-01  6.0622830192037D-01
    81  8.0000000000000D-01 -7.6059004172941D-01  5.7174673869134D-01
    82  8.1000000000000D-01 -6.8387010324361D-01  5.3799222362253D-01
    83  8.2000000000000D-01 -6.0743625915594D-01  5.0504540019567D-01
    84  8.3000000000000D-01 -5.3194107012634D-01  4.7298064744000D-01
    85  8.4000000000000D-01 -4.5800776639811D-01  4.4186570310379D-01
    86  8.5000000000000D-01 -3.8622385703946D-01  4.1176134115045D-01
    87  8.6000000000000D-01 -3.1713521082594D-01  3.8272110739617D-01
    88  8.7000000000000D-01 -2.5124068353538D-01  3.5479111655844D-01
    89  8.8000000000000D-01 -1.8898735972562D-01  3.2800991338706D-01
    90  8.9000000000000D-01 -1.3076646937491D-01  3.0240839990724D-01
    91  9.0000000000000D-01 -7.6910031184191D-02  2.7800983012536D-01
    92  9.1000000000000D-01 -2.7688264977397D-02  2.5482987283903D-01
    93  9.2000000000000D-01  1.6692194385151D-02  2.3287674246307D-01
    94  9.3000000000000D-01  5.6089259711284D-02  2.1215139703983D-01
    95  9.4000000000000D-01  9.0425519858738D-02  1.9264780185503D-01
    96  9.5000000000000D-01  1.1968753400459D-01  1.7435325633916D-01
    97  9.6000000000000D-01  1.4392430329110D-01  1.5724878120401D-01
    98  9.7000000000000D-01  1.6324494245089D-01  1.4130956206328D-01
    99  9.8000000000000D-01  1.7781558488172D-01  1.2650544511718D-01
   100  9.9000000000000D-01  1.8785556533880D-01  1.1280147984147D-01
   101  1.0000000000000D+00  1.9363293422892D-01  1.0015850305102D-01
   102  1.0100000000000D+00  1.9545936685791D-01  8.8533758181325D-02
   103  1.0200000000000D+00  1.9368453942582D-01  7.7881543174711D-02
   104  1.0300000000000D+00  1.8869005115013D-01  6.8153879969466D-02
   105  1.0400000000000D+00  1.8088297819223D-01  5.9301198288264D-02
   106  1.0500000000000D+00  1.7068915048934D-01  5.1273026186228D-02
   107  1.0600000000000D+00  1.5854624667949D-01  4.4018679677878D-02
   108  1.0700000000000D+00  1.4489680494485D-01  3.7487943710158D-02
   109  1.0800000000000D+00  1.3018124905059D-01  3.1631736783412D-02
   110  1.0900000000000D+00  1.1483102876524D-01  2.6402751651504D-02
   111  1.1000000000000D+00  9.9261972842680D-02  2.1756064716373D-02
   112  1.1100000000000D+00  8.3867949622441D-02  1.7649707069177D-02
   113  1.1200000000000D+00  6.9014926632329D-02  1.4045190474102D-02
   114  1.1300000000000D+00  5.5035514272672D-02  1.0907982128911D-02
   115  1.1400000000000D+00  4.2224074336618D-02  8.2079223982709D-03
   116  1.1500000000000D+00  3.0832463925673D-02  5.9195805164325D-03
   117  1.1600000000000D+00  2.1066478402672D-02  4.0225437759566D-03
   118  1.1700000000000D+00  1.3087132073821D-02  2.5025210794434D-03
   119  1.1800000000000D+00  6.9782787030049D-03  1.3449988018112D-03
   120  1.1900000000000D+00  2.8186329745794D-03  5.5086488496321D-04
   121  1.2000000000000D+00  7.3655892508755D-04  1.4730655871667D-04
   122  1.2100000000000D+00  8.6117245048954D-05  1.7809531196804D-05
   123  1.2200000000000D+00 -1.6910886711180D-06 -3.2407153673983D-07
   124  1.2300000000000D+00  7.2909539253441D-06  1.3412945548060D-06
   125  1.2400000000000D+00 -2.2492764150135D-07 -9.4752250557357D-09
   126  1.2500000000000D+00 -7.7366271582876D-08 -1.0745114569552D-08
   127  1.2600000000000D+00 -5.3900111484071D-07 -1.0963863248608D-07
   128  1.2700000000000D+00  0.0000000000000D+00  0.0000000000000D+00
   129  1.2800000000000D+00  0.0000000000000D+00  0.0000000000000D+00
   130  1.2900000000000D+00  0.0000000000000D+00  0.0000000000000D+00
   131  1.3000000000000D+00  0.0000000000000D+00  0.0000000000000D+00
   132  1.3100000000000D+00  0.0000000000000D+00  0.0000000000000D+00
   133  1.3200000000000D+00  0.0000000000000D+00  0.0000000000000D+00
   134  1.3300000000000D+00  0.0000000000000D+00  0.0000000000000D+00
   135  1.3400000000000D+00  0.0000000000000D+00  0.0000000000000D+00
   136  1.3500000000000D+00  0.0000000000000D+00  0.0000000000000D+00
   137  1.3600000000000D+00  0.0000000000000D+00  0.0000000000000D+00
   138  1.3700000000000D+00  0.0000000000000D+00  0.0000000000000D+00
   139  1.3800000000000D+00  0.0000000000000D+00  0.0000000000000D+00
   140  1.3900000000000D+00  0.0000000000000D+00  0.0000000000000D+00
   141  1.4000000000000D+00  0.0000000000000D+00  0.0000000000000D+00
   142  1.4100000000000D+00  0.0000000000000D+00  0.0000000000000D+00
   143  1.4200000000000D+00  0.0000000000000D+00  0.0000000000000D+00
   144  1.4300000000000D+00  0.0000000000000D+00  0.0000000000000D+00
   145  1.4400000000000D+00  0.0000000000000D+00  0.0000000000000D+00
   146  1.4500000000000D+00  0.0000000000000D+00  0.0000000000000D+00
   147  1.4600000000000D+00  0.0000000000000D+00  0.0000000000000D+00
   148  1.4700000000000D+00  0.0000000000000D+00  0.0000000000000D+00
   149  1.4800000000000D+00  0.0000000000000D+00  0.0000000000000D+00
   150  1.4900000000000D+00  0.0000000000000D+00  0.0000000000000D+00
   151  1.5000000000000D+00  0.0000000000000D+00  0.0000000000000D+00
   152  1.5100000000000D+00  0.0000000000000D+00  0.0000000000000D+00
   153  1.5200000000000D+00  0.0000000000000D+00  0.0000000000000D+00
   154  1.5300000000000D+00  0.0000000000000D+00  0.0000000000000D+00
   155  1.5400000000000D+00  0.0000000000000D+00  0.0000000000000D+00
   156  1.5500000000000D+00  0.0000000000000D+00  0.0000000000000D+00
   157  1.5600000000000D+00  0.0000000000000D+00  0.0000000000000D+00
   158  1.5700000000000D+00  0.0000000000000D+00  0.0000000000000D+00
   159  1.5800000000000D+00  0.0000000000000D+00  0.0000000000000D+00
   160  1.5900000000000D+00  0.0000000000000D+00  0.0000000000000D+00
   161  1.6000000000000D+00  0.0000000000000D+00  0.0000000000000D+00
   162  1.6100000000000D+00  0.0000000000000D+00  0.0000000000000D+00
   163  1.6200000000000D+00  0.0000000000000D+00  0.0000000000000D+00
   164  1.6300000000000D+00  0.0000000000000D+00  0.0000000000000D+00
   165  1.6400000000000D+00  0.0000000000000D+00  0.0000000000000D+00
   166  1.6500000000000D+00  0.0000000000000D+00  0.0000000000000D+00
   167  1.6600000000000D+00  0.0000000000000D+00  0.0000000000000D+00
   168  1.6700000000000D+00  0.0000000000000D+00  0.0000000000000D+00
   169  1.6800000000000D+00  0.0000000000000D+00  0.0000000000000D+00
   170  1.6900000000000D+00  0.0000000000000D+00  0.0000000000000D+00
   171  1.7000000000000D+00  0.0000000000000D+00  0.0000000000000D+00
   172  1.7100000000000D+00  0.0000000000000D+00  0.0000000000000D+00
   173  1.7200000000000D+00  0.0000000000000D+00  0.0000000000000D+00
   174  1.7300000000000D+00  0.0000000000000D+00  0.0000000000000D+00
   175  1.7400000000000D+00  0.0000000000000D+00  0.0000000000000D+00
   176  1.7500000000000D+00  0.0000000000000D+00  0.0000000000000D+00
   177  1.7600000000000D+00  0.0000000000000D+00  0.0000000000000D+00
   178  1.7700000000000D+00  0.0000000000000D+00  0.0000000000000D+00
   179  1.7800000000000D+00  0.0000000000000D+00  0.0000000000000D+00
   180  1.7900000000000D+00  0.0000000000000D+00  0.0000000000000D+00
   181  1.8000000000000D+00  0.0000000000000D+00  0.0000000000000D+00
   182  1.8100000000000D+00  0.0000000000000D+00  0.0000000000000D+00
   183  1.8200000000000D+00  0.0000000000000D+00  0.0000000000000D+00
   184  1.8300000000000D+00  0.0000000000000D+00  0.0000000000000D+00
   185  1.8400000000000D+00  0.0000000000000D+00  0.0000000000000D+00
   186  1.8500000000000D+00  0.0000000000000D+00  0.0000000000000D+00
   187  1.8600000000000D+00  0.0000000000000D+00  0.0000000000000D+00
   188  1.8700000000000D+00  0.0000000000000D+00  0.0000000000000D+00
   189  1.8800000000000D+00  0.0000000000000D+00  0.0000000000000D+00
   190  1.8900000000000D+00  0.0000000000000D+00  0.0000000000000D+00
   191  1.9000000000000D+00  0.0000000000000D+00  0.0000000000000D+00
   192  1.9100000000000D+00  0.0000000000000D+00  0.0000000000000D+00
   193  1.9200000000000D+00  0.0000000000000D+00  0.0000000000000D+00
   194  1.9300000000000D+00  0.0000000000000D+00  0.0000000000000D+00
   195  1.9400000000000D+00  0.0000000000000D+00  0.0000000000000D+00
   196  1.9500000000000D+00  0.0000000000000D+00  0.0000000000000D+00
   197  1.9600000000000D+00  0.0000000000000D+00  0.0000000000000D+00
   198  1.9700000000000D+00  0.0000000000000D+00  0.0000000000000D+00
   199  1.9800000000000D+00  0.0000000000000D+00  0.0000000000000D+00
   200  1.9900000000000D+00  0.0000000000000D+00  0.0000000000000D+00
   201  2.0000000000000D+00  0.0000000000000D+00  0.0000000000000D+00
   202  2.0100000000000D+00  0.0000000000000D+00  0.0000000000000D+00
   203  2.0200000000000D+00  0.0000000000000D+00  0.0000000000000D+00
   204  2.0300000000000D+00  0.0000000000000D+00  0.0000000000000D+00
   205  2.0400000000000D+00  0.0000000000000D+00  0.0000000000000D+00
   206  2.0500000000000D+00  0.0000000000000D+00  0.0000000000000D+00
   207  2.0600000000000D+00  0.0000000000000D+00  0.0000000000000D+00
   208  2.0700000000000D+00  0.0000000000000D+00  0.0000000000000D+00
   209  2.0800000000000D+00  0.0000000000000D+00  0.0000000000000D+00
   210  2.0900000000000D+00  0.0000000000000D+00  0.0000000000000D+00
   211  2.1000000000000D+00  0.0000000000000D+00  0.0000000000000D+00
   212  2.1100000000000D+00  0.0000000000000D+00  0.0000000000000D+00
   213  2.1200000000000D+00  0.0000000000000D+00  0.0000000000000D+00
   214  2.1300000000000D+00  0.0000000000000D+00  0.0000000000000D+00
   215  2.1400000000000D+00  0.0000000000000D+00  0.0000000000000D+00
   216  2.1500000000000D+00  0.0000000000000D+00  0.0000000000000D+00
   217  2.1600000000000D+00  0.0000000000000D+00  0.0000000000000D+00
   218  2.1700000000000D+00  0.0000000000000D+00  0.0000000000000D+00
   219  2.1800000000000D+00  0.0000000000000D+00  0.0000000000000D+00
   220  2.1900000000000D+00  0.0000000000000D+00  0.0000000000000D+00
   221  2.2000000000000D+00  0.0000000000000D+00  0.0000000000000D+00
   222  2.2100000000000D+00  0.0000000000000D+00  0.0000000000000D+00
   223  2.2200000000000D+00  0.0000000000000D+00  0.0000000000000D+00
   224  2.2300000000000D+00  0.0000000000000D+00  0.0000000000000D+00
   225  2.2400000000000D+00  0.0000000000000D+00  0.0000000000000D+00
   226  2.2500000000000D+00  0.0000000000000D+00  0.0000000000000D+00
   227  2.2600000000000D+00  0.0000000000000D+00  0.0000000000000D+00
   228  2.2700000000000D+00  0.0000000000000D+00  0.0000000000000D+00
   229  2.2800000000000D+00  0.0000000000000D+00  0.0000000000000D+00
   230  2.2900000000000D+00  0.0000000000000D+00  0.0000000000000D+00
   231  2.3000000000000D+00  0.0000000000000D+00  0.0000000000000D+00
   232  2.3100000000000D+00  0.0000000000000D+00  0.0000000000000D+00
   233  2.3200000000000D+00  0.0000000000000D+00  0.0000000000000D+00
   234  2.3300000000000D+00  0.0000000000000D+00  0.0000000000000D+00
   235  2.3400000000000D+00  0.0000000000000D+00  0.0000000000000D+00
   236  2.3500000000000D+00  0.0000000000000D+00  0.0000000000000D+00
   237  2.3600000000000D+00  0.0000000000000D+00  0.0000000000000D+00
   238  2.3700000000000D+00  0.0000000000000D+00  0.0000000000000D+00
   239  2.3800000000000D+00  0.0000000000000D+00  0.0000000000000D+00
   240  2.3900000000000D+00  0.0000000000000D+00  0.0000000000000D+00
   241  2.4000000000000D+00  0.0000000000000D+00  0.0000000000000D+00
   242  2.4100000000000D+00  0.0000000000000D+00  0.0000000000000D+00
   243  2.4200000000000D+00  0.0000000000000D+00  0.0000000000000D+00
   244  2.4300000000000D+00  0.0000000000000D+00  0.0000000000000D+00
   245  2.4400000000000D+00  0.0000000000000D+00  0.0000000000000D+00
   246  2.4500000000000D+00  0.0000000000000D+00  0.0000000000000D+00
   247  2.4600000000000D+00  0.0000000000000D+00  0.0000000000000D+00
   248  2.4700000000000D+00  0.0000000000000D+00  0.0000000000000D+00
   249  2.4800000000000D+00  0.0000000000000D+00  0.0000000000000D+00
   250  2.4900000000000D+00  0.0000000000000D+00  0.0000000000000D+00
   251  2.5000000000000D+00  0.0000000000000D+00  0.0000000000000D+00
   252  2.5100000000000D+00  0.0000000000000D+00  0.0000000000000D+00
   253  2.5200000000000D+00  0.0000000000000D+00  0.0000000000000D+00
   254  2.5300000000000D+00  0.0000000000000D+00  0.0000000000000D+00
   255  2.5400000000000D+00  0.0000000000000D+00  0.0000000000000D+00
   256  2.5500000000000D+00  0.0000000000000D+00  0.0000000000000D+00
   257  2.5600000000000D+00  0.0000000000000D+00  0.0000000000000D+00
   258  2.5700000000000D+00  0.0000000000000D+00  0.0000000000000D+00
   259  2.5800000000000D+00  0.0000000000000D+00  0.0000000000000D+00
   260  2.5900000000000D+00  0.0000000000000D+00  0.0000000000000D+00
   261  2.6000000000000D+00  0.0000000000000D+00  0.0000000000000D+00
   262  2.6100000000000D+00  0.0000000000000D+00  0.0000000000000D+00
   263  2.6200000000000D+00  0.0000000000000D+00  0.0000000000000D+00
   264  2.6300000000000D+00  0.0000000000000D+00  0.0000000000000D+00
   265  2.6400000000000D+00  0.0000000000000D+00  0.0000000000000D+00
   266  2.6500000000000D+00  0.0000000000000D+00  0.0000000000000D+00
   267  2.6600000000000D+00  0.0000000000000D+00  0.0000000000000D+00
   268  2.6700000000000D+00  0.0000000000000D+00  0.0000000000000D+00
   269  2.6800000000000D+00  0.0000000000000D+00  0.0000000000000D+00
   270  2.6900000000000D+00  0.0000000000000D+00  0.0000000000000D+00
   271  2.7000000000000D+00  0.0000000000000D+00  0.0000000000000D+00
   272  2.7100000000000D+00  0.0000000000000D+00  0.0000000000000D+00
   273  2.7200000000000D+00  0.0000000000000D+00  0.0000000000000D+00
   274  2.7300000000000D+00  0.0000000000000D+00  0.0000000000000D+00
   275  2.7400000000000D+00  0.0000000000000D+00  0.0000000000000D+00
   276  2.7500000000000D+00  0.0000000000000D+00  0.0000000000000D+00
   277  2.7600000000000D+00  0.0000000000000D+00  0.0000000000000D+00
   278  2.7700000000000D+00  0.0000000000000D+00  0.0000000000000D+00
   279  2.7800000000000D+00  0.0000000000000D+00  0.0000000000000D+00
   280  2.7900000000000D+00  0.0000000000000D+00  0.0000000000000D+00
   281  2.8000000000000D+00  0.0000000000000D+00  0.0000000000000D+00
   282  2.8100000000000D+00  0.0000000000000D+00  0.0000000000000D+00
   283  2.8200000000000D+00  0.0000000000000D+00  0.0000000000000D+00
   284  2.8300000000000D+00  0.0000000000000D+00  0.0000000000000D+00
   285  2.8400000000000D+00  0.0000000000000D+00  0.0000000000000D+00
   286  2.8500000000000D+00  0.0000000000000D+00  0.0000000000000D+00
   287  2.8600000000000D+00  0.0000000000000D+00  0.0000000000000D+00
   288  2.8700000000000D+00  0.0000000000000D+00  0.0000000000000D+00
   289  2.8800000000000D+00  0.0000000000000D+00  0.0000000000000D+00
   290  2.8900000000000D+00  0.0000000000000D+00  0.0000000000000D+00
   291  2.9000000000000D+00  0.0000000000000D+00  0.0000000000000D+00
   292  2.9100000000000D+00  0.0000000000000D+00  0.0000000000000D+00
   293  2.9200000000000D+00  0.0000000000000D+00  0.0000000000000D+00
   294  2.9300000000000D+00  0.0000000000000D+00  0.0000000000000D+00
   295  2.9400000000000D+00  0.0000000000000D+00  0.0000000000000D+00
   296  2.9500000000000D+00  0.0000000000000D+00  0.0000000000000D+00
   297  2.9600000000000D+00  0.0000000000000D+00  0.0000000000000D+00
   298  2.9700000000000D+00  0.0000000000000D+00  0.0000000000000D+00
   299  2.9800000000000D+00  0.0000000000000D+00  0.0000000000000D+00
   300  2.9900000000000D+00  0.0000000000000D+00  0.0000000000000D+00
   301  3.0000000000000D+00  0.0000000000000D+00  0.0000000000000D+00
   302  3.0100000000000D+00  0.0000000000000D+00  0.0000000000000D+00
   303  3.0200000000000D+00  0.0000000000000D+00  0.0000000000000D+00
   304  3.0300000000000D+00  0.0000000000000D+00  0.0000000000000D+00
   305  3.0400000000000D+00  0.0000000000000D+00  0.0000000000000D+00
   306  3.0500000000000D+00  0.0000000000000D+00  0.0000000000000D+00
   307  3.0600000000000D+00  0.0000000000000D+00  0.0000000000000D+00
   308  3.0700000000000D+00  0.0000000000000D+00  0.0000000000000D+00
   309  3.0800000000000D+00  0.0000000000000D+00  0.0000000000000D+00
   310  3.0900000000000D+00  0.0000000000000D+00  0.0000000000000D+00
   311  3.1000000000000D+00  0.0000000000000D+00  0.0000000000000D+00
   312  3.1100000000000D+00  0.0000000000000D+00  0.0000000000000D+00
   313  3.1200000000000D+00  0.0000000000000D+00  0.0000000000000D+00
   314  3.1300000000000D+00  0.0000000000000D+00  0.0000000000000D+00
   315  3.1400000000000D+00  0.0000000000000D+00  0.0000000000000D+00
   316  3.1500000000000D+00  0.0000000000000D+00  0.0000000000000D+00
   317  3.1600000000000D+00  0.0000000000000D+00  0.0000000000000D+00
   318  3.1700000000000D+00  0.0000000000000D+00  0.0000000000000D+00
   319  3.1800000000000D+00  0.0000000000000D+00  0.0000000000000D+00
   320  3.1900000000000D+00  0.0000000000000D+00  0.0000000000000D+00
   321  3.2000000000000D+00  0.0000000000000D+00  0.0000000000000D+00
   322  3.2100000000000D+00  0.0000000000000D+00  0.0000000000000D+00
   323  3.2200000000000D+00  0.0000000000000D+00  0.0000000000000D+00
   324  3.2300000000000D+00  0.0000000000000D+00  0.0000000000000D+00
   325  3.2400000000000D+00  0.0000000000000D+00  0.0000000000000D+00
   326  3.2500000000000D+00  0.0000000000000D+00  0.0000000000000D+00
   327  3.2600000000000D+00  0.0000000000000D+00  0.0000000000000D+00
   328  3.2700000000000D+00  0.0000000000000D+00  0.0000000000000D+00
   329  3.2800000000000D+00  0.0000000000000D+00  0.0000000000000D+00
   330  3.2900000000000D+00  0.0000000000000D+00  0.0000000000000D+00
   331  3.3000000000000D+00  0.0000000000000D+00  0.0000000000000D+00
   332  3.3100000000000D+00  0.0000000000000D+00  0.0000000000000D+00
   333  3.3200000000000D+00  0.0000000000000D+00  0.0000000000000D+00
   334  3.3300000000000D+00  0.0000000000000D+00  0.0000000000000D+00
   335  3.3400000000000D+00  0.0000000000000D+00  0.0000000000000D+00
   336  3.3500000000000D+00  0.0000000000000D+00  0.0000000000000D+00
   337  3.3600000000000D+00  0.0000000000000D+00  0.0000000000000D+00
   338  3.3700000000000D+00  0.0000000000000D+00  0.0000000000000D+00
   339  3.3800000000000D+00  0.0000000000000D+00  0.0000000000000D+00
   340  3.3900000000000D+00  0.0000000000000D+00  0.0000000000000D+00
   341  3.4000000000000D+00  0.0000000000000D+00  0.0000000000000D+00
   342  3.4100000000000D+00  0.0000000000000D+00  0.0000000000000D+00
   343  3.4200000000000D+00  0.0000000000000D+00  0.0000000000000D+00
   344  3.4300000000000D+00  0.0000000000000D+00  0.0000000000000D+00
   345  3.4400000000000D+00  0.0000000000000D+00  0.0000000000000D+00
   346  3.4500000000000D+00  0.0000000000000D+00  0.0000000000000D+00
   347  3.4600000000000D+00  0.0000000000000D+00  0.0000000000000D+00
   348  3.4700000000000D+00  0.0000000000000D+00  0.0000000000000D+00
   349  3.4800000000000D+00  0.0000000000000D+00  0.0000000000000D+00
   350  3.4900000000000D+00  0.0000000000000D+00  0.0000000000000D+00
   351  3.5000000000000D+00  0.0000000000000D+00  0.0000000000000D+00
   352  3.5100000000000D+00  0.0000000000000D+00  0.0000000000000D+00
   353  3.5200000000000D+00  0.0000000000000D+00  0.0000000000000D+00
   354  3.5300000000000D+00  0.0000000000000D+00  0.0000000000000D+00
   355  3.5400000000000D+00  0.0000000000000D+00  0.0000000000000D+00
   356  3.5500000000000D+00  0.0000000000000D+00  0.0000000000000D+00
   357  3.5600000000000D+00  0.0000000000000D+00  0.0000000000000D+00
   358  3.5700000000000D+00  0.0000000000000D+00  0.0000000000000D+00
   359  3.5800000000000D+00  0.0000000000000D+00  0.0000000000000D+00
   360  3.5900000000000D+00  0.0000000000000D+00  0.0000000000000D+00
   361  3.6000000000000D+00  0.0000000000000D+00  0.0000000000000D+00
   362  3.6100000000000D+00  0.0000000000000D+00  0.0000000000000D+00
   363  3.6200000000000D+00  0.0000000000000D+00  0.0000000000000D+00
   364  3.6300000000000D+00  0.0000000000000D+00  0.0000000000000D+00
   365  3.6400000000000D+00  0.0000000000000D+00  0.0000000000000D+00
   366  3.6500000000000D+00  0.0000000000000D+00  0.0000000000000D+00
   367  3.6600000000000D+00  0.0000000000000D+00  0.0000000000000D+00
   368  3.6700000000000D+00  0.0000000000000D+00  0.0000000000000D+00
   369  3.6800000000000D+00  0.0000000000000D+00  0.0000000000000D+00
   370  3.6900000000000D+00  0.0000000000000D+00  0.0000000000000D+00
   371  3.7000000000000D+00  0.0000000000000D+00  0.0000000000000D+00
   372  3.7100000000000D+00  0.0000000000000D+00  0.0000000000000D+00
   373  3.7200000000000D+00  0.0000000000000D+00  0.0000000000000D+00
   374  3.7300000000000D+00  0.0000000000000D+00  0.0000000000000D+00
   375  3.7400000000000D+00  0.0000000000000D+00  0.0000000000000D+00
   376  3.7500000000000D+00  0.0000000000000D+00  0.0000000000000D+00
   377  3.7600000000000D+00  0.0000000000000D+00  0.0000000000000D+00
   378  3.7700000000000D+00  0.0000000000000D+00  0.0000000000000D+00
   379  3.7800000000000D+00  0.0000000000000D+00  0.0000000000000D+00
   380  3.7900000000000D+00  0.0000000000000D+00  0.0000000000000D+00
   381  3.8000000000000D+00  0.0000000000000D+00  0.0000000000000D+00
   382  3.8100000000000D+00  0.0000000000000D+00  0.0000000000000D+00
   383  3.8200000000000D+00  0.0000000000000D+00  0.0000000000000D+00
   384  3.8300000000000D+00  0.0000000000000D+00  0.0000000000000D+00
   385  3.8400000000000D+00  0.0000000000000D+00  0.0000000000000D+00
   386  3.8500000000000D+00  0.0000000000000D+00  0.0000000000000D+00
   387  3.8600000000000D+00  0.0000000000000D+00  0.0000000000000D+00
   388  3.8700000000000D+00  0.0000000000000D+00  0.0000000000000D+00
   389  3.8800000000000D+00  0.0000000000000D+00  0.0000000000000D+00
   390  3.8900000000000D+00  0.0000000000000D+00  0.0000000000000D+00
   391  3.9000000000000D+00  0.0000000000000D+00  0.0000000000000D+00
   392  3.9100000000000D+00  0.0000000000000D+00  0.0000000000000D+00
   393  3.9200000000000D+00  0.0000000000000D+00  0.0000000000000D+00
   394  3.9300000000000D+00  0.0000000000000D+00  0.0000000000000D+00
   395  3.9400000000000D+00  0.0000000000000D+00  0.0000000000000D+00
   396  3.9500000000000D+00  0.0000000000000D+00  0.0000000000000D+00
   397  3.9600000000000D+00  0.0000000000000D+00  0.0000000000000D+00
   398  3.9700000000000D+00  0.0000000000000D+00  0.0000000000000D+00
   399  3.9800000000000D+00  0.0000000000000D+00  0.0000000000000D+00
   400  3.9900000000000D+00  0.0000000000000D+00  0.0000000000000D+00
   401  4.0000000000000D+00  0.0000000000000D+00  0.0000000000000D+00
   402  4.0100000000000D+00  0.0000000000000D+00  0.0000000000000D+00
   403  4.0200000000000D+00  0.0000000000000D+00  0.0000000000000D+00
   404  4.0300000000000D+00  0.0000000000000D+00  0.0000000000000D+00
   405  4.0400000000000D+00  0.0000000000000D+00  0.0000000000000D+00
   406  4.0500000000000D+00  0.0000000000000D+00  0.0000000000000D+00
   407  4.0600000000000D+00  0.0000000000000D+00  0.0000000000000D+00
   408  4.0700000000000D+00  0.0000000000000D+00  0.0000000000000D+00
   409  4.0800000000000D+00  0.0000000000000D+00  0.0000000000000D+00
   410  4.0900000000000D+00  0.0000000000000D+00  0.0000000000000D+00
   411  4.1000000000000D+00  0.0000000000000D+00  0.0000000000000D+00
   412  4.1100000000000D+00  0.0000000000000D+00  0.0000000000000D+00
   413  4.1200000000000D+00  0.0000000000000D+00  0.0000000000000D+00
   414  4.1300000000000D+00  0.0000000000000D+00  0.0000000000000D+00
   415  4.1400000000000D+00  0.0000000000000D+00  0.0000000000000D+00
   416  4.1500000000000D+00  0.0000000000000D+00  0.0000000000000D+00
   417  4.1600000000000D+00  0.0000000000000D+00  0.0000000000000D+00
   418  4.1700000000000D+00  0.0000000000000D+00  0.0000000000000D+00
   419  4.1800000000000D+00  0.0000000000000D+00  0.0000000000000D+00
   420  4.1900000000000D+00  0.0000000000000D+00  0.0000000000000D+00
   421  4.2000000000000D+00  0.0000000000000D+00  0.0000000000000D+00
   422  4.2100000000000D+00  0.0000000000000D+00  0.0000000000000D+00