Br    ONCVPSP-3.3.0  r_core=   1.81012   1.51356   1.92136
     35.0000      7.0000      220117    zatom,zion,pspd
     8      11   2     4   600     0    pspcod,pspxc,lmax,lloc,mmax,r2well
  5.99000000  0.00000000  0.00000000    rchrg fchrg qchrg
     2     2     2     0     0    nproj
     1     1           extension_switch
   0                         8.4555490508060D+00  8.7846033534968D-01
     1  0.0000000000000D+00 -2.0608625916907D-10  4.1353018231938D-10
     2  1.0000000000000D-02  3.9351458826441D-02 -1.7751567684942D-02
     3  2.0000000000000D-02  7.8658812250944D-02 -3.5438896618494D-02
     4  3.0000000000000D-02  1.1787823389393D-01 -5.2998350837050D-02
     5  4.0000000000000D-02  1.5696645145329D-01 -7.0367491672203D-02
     6  5.0000000000000D-02  1.9588101387813D-01 -8.7485655803952D-02
     7  6.0000000000000D-02  2.3458054685286D-01 -1.0429450889778D-01
     8  7.0000000000000D-02  2.7302499293994D-01 -1.2073856717824D-01
     9  8.0000000000000D-02  3.1117583293589D-01 -1.3676567970511D-01
    10  9.0000000000000D-02  3.4899628524787D-01 -1.5232746462566D-01
    11  1.0000000000000D-01  3.8645148039408D-01 -1.6737969327176D-01
    12  1.1000000000000D-01  4.2350860806744D-01 -1.8188261664598D-01
    13  1.2000000000000D-01  4.6013703457321D-01 -1.9580122958918D-01
    14  1.3000000000000D-01  4.9630838885345D-01 -2.0910546873305D-01
    15  1.4000000000000D-01  5.3199661573946D-01 -2.2177034120579D-01
    16  1.5000000000000D-01  5.6717799552141D-01 -2.3377598196647D-01
    17  1.6000000000000D-01  6.0183112938750D-01 -2.4510763858261D-01
    18  1.7000000000000D-01  6.3593689075706D-01 -2.5575558322513D-01
    19  1.8000000000000D-01  6.6947834300611D-01 -2.6571495262223D-01
    20  1.9000000000000D-01  7.0244062455570D-01 -2.7498551767816D-01
    21  2.0000000000000D-01  7.3481080275523D-01 -2.8357138541195D-01
    22  2.1000000000000D-01  7.6657769843948D-01 -2.9148063679241D-01
    23  2.2000000000000D-01  7.9773168346407D-01 -2.9872490492899D-01
    24  2.3000000000000D-01  8.2826445392307D-01 -3.0531889891154D-01
    25  2.4000000000000D-01  8.5816878211956D-01 -3.1127987936449D-01
    26  2.5000000000000D-01  8.8743825069062D-01 -3.1662709248440D-01
    27  2.6000000000000D-01  9.1606697257767D-01 -3.2138116995344D-01
    28  2.7000000000000D-01  9.4404930077708D-01 -3.2556350265742D-01
    29  2.8000000000000D-01  9.7137953200196D-01 -3.2919559657982D-01
    30  2.9000000000000D-01  9.9805160853032D-01 -3.3229841958392D-01
    31  3.0000000000000D-01  1.0240588226057D+00 -3.3489174803227D-01
    32  3.1000000000000D-01  1.0493935277916D+00 -3.3699352231913D-01
    33  3.2000000000000D-01  1.0740468616623D+00 -3.3861922040837D-01
    34  3.3000000000000D-01  1.0980084841334D+00 -3.3978125837213D-01
    35  3.4000000000000D-01  1.1212663356061D+00 -3.4048842671760D-01
    36  3.5000000000000D-01  1.1438064189103D+00 -3.4074537097005D-01
    37  3.6000000000000D-01  1.1656126087936D+00 -3.4055212455394D-01
    38  3.7000000000000D-01  1.1866664924119D+00 -3.3990370148442D-01
    39  3.8000000000000D-01  1.2069472439424D+00 -3.3878975575370D-01
    40  3.9000000000000D-01  1.2264315360579D+00 -3.3719431357865D-01
    41  4.0000000000000D-01  1.2450934905840D+00 -3.3509558387382D-01
    42  4.1000000000000D-01  1.2629046702054D+00 -3.3246585143825D-01
    43  4.2000000000000D-01  1.2798341126069D+00 -3.2927145640291D-01
    44  4.3000000000000D-01  1.2958484079289D+00 -3.2547286249100D-01
    45  4.4000000000000D-01  1.3109118198912D+00 -3.2102481560531D-01
    46  4.5000000000000D-01  1.3249864504105D+00 -3.1587659318803D-01
    47  4.6000000000000D-01  1.3380324469905D+00 -3.0997234371081D-01
    48  4.7000000000000D-01  1.3500082516336D+00 -3.0325151455989D-01
    49  4.8000000000000D-01  1.3608708894869D+00 -2.9564936549358D-01
    50  4.9000000000000D-01  1.3705762949273D+00 -2.8709756378308D-01
    51  5.0000000000000D-01  1.3790796722914D+00 -2.7752485611138D-01
    52  5.1000000000000D-01  1.3863358879926D+00 -2.6685781131544D-01
    53  5.2000000000000D-01  1.3922998903340D+00 -2.5502162712119D-01
    54  5.3000000000000D-01  1.3969271529289D+00 -2.4194099315500D-01
    55  5.4000000000000D-01  1.4001741372910D+00 -2.2754100172614D-01
    56  5.5000000000000D-01  1.4019987698513D+00 -2.1174809717375D-01
    57  5.6000000000000D-01  1.4023609284068D+00 -1.9449105396866D-01
    58  5.7000000000000D-01  1.4012229328119D+00 -1.7570197325941D-01
    59  5.8000000000000D-01  1.3985500345824D+00 -1.5531728716460D-01
    60  5.9000000000000D-01  1.3943109000055D+00 -1.3327875984006D-01
    61  6.0000000000000D-01  1.3884780813346D+00 -1.0953447419795D-01
    62  6.1000000000000D-01  1.3810284706896D+00 -8.4039793125746D-02
    63  6.2000000000000D-01  1.3719437313967D+00 -5.6758284147023D-02
    64  6.3000000000000D-01  1.3612107016680D+00 -2.7662596686880D-02
    65  6.4000000000000D-01  1.3488217657514D+00  3.2647185558908D-03
    66  6.5000000000000D-01  1.3347751879699D+00  3.6030458165991D-02
    67  6.6000000000000D-01  1.3190754054097D+00  7.0630091957735D-02
    68  6.7000000000000D-01  1.3017332754095D+00  1.0704717508605D-01
    69  6.8000000000000D-01  1.2827662744428D+00  1.4525285431080D-01
    70  6.9000000000000D-01  1.2621986454662D+00  1.8520547552016D-01
    71  7.0000000000000D-01  1.2400614913252D+00  2.2685029865249D-01
    72  7.1000000000000D-01  1.2163928123556D+00  2.7011932511789D-01
    73  7.2000000000000D-01  1.1912374868930D+00  3.1493124171358D-01
    74  7.3000000000000D-01  1.1646471939927D+00  3.6119148387203D-01
    75  7.4000000000000D-01  1.1366802782663D+00  4.0879241988743D-01
    76  7.5000000000000D-01  1.1074015573438D+00  4.5761365654473D-01
    77  7.6000000000000D-01  1.0768820730803D+00  5.0752246534117D-01
    78  7.7000000000000D-01  1.0451987882110D+00  5.5837432726319D-01
    79  7.8000000000000D-01  1.0124342307463D+00  6.1001359285652D-01
    80  7.9000000000000D-01  9.7867608894672D-01  6.6227425314362D-01
    81  8.0000000000000D-01  9.4401676024311D-01  7.1498081579117D-01
    82  8.1000000000000D-01  9.0855285795955D-01  7.6794927983589D-01
    83  8.2000000000000D-01  8.7238468014148D-01  8.2098820124721D-01
    84  8.3000000000000D-01  8.3561564519462D-01  8.7389984065293D-01
    85  8.4000000000000D-01  7.9835169938980D-01  9.2648138368858D-01
    86  8.5000000000000D-01  7.6070070158379D-01  9.7852622366304D-01
    87  8.6000000000000D-01  7.2277179074289D-01  1.0298252955695D+00
    88  8.7000000000000D-01  6.8467474203064D-01  1.0801684499202D+00
    89  8.8000000000000D-01  6.4651931733295D-01  1.1293458544505D+00
    90  8.9000000000000D-01  6.0841461614113D-01  1.1771494114279D+00
    91  9.0000000000000D-01  5.7046843269544D-01  1.2233741781178D+00
    92  9.1000000000000D-01  5.3278662520957D-01  1.2678197779015D+00
    93  9.2000000000000D-01  4.9547250285045D-01  1.3102917896121D+00
    94  9.3000000000000D-01  4.5862623594022D-01  1.3506031028548D+00
    95  9.4000000000000D-01  4.2234429458070D-01  1.3885752273980D+00
    96  9.5000000000000D-01  3.8671892057864D-01  1.4240395451633D+00
    97  9.6000000000000D-01  3.5183763717399D-01  1.4568384939069D+00
    98  9.7000000000000D-01  3.1778280065322D-01  1.4868266723418D+00
    99  9.8000000000000D-01  2.8463119747017D-01  1.5138718572168D+00
   100  9.9000000000000D-01  2.5245368998744D-01  1.5378559237351D+00
   101  1.0000000000000D+00  2.2131491342896D-01  1.5586756616263D+00
   102  1.0100000000000D+00  1.9127302607605D-01  1.5762434801993D+00
   103  1.0200000000000D+00  1.6237951416938D-01  1.5904879967700D+00
   104  1.0300000000000D+00  1.3467905238809D-01  1.6013545039935D+00
   105  1.0400000000000D+00  1.0820942020435D-01  1.6088053127559D+00
   106  1.0500000000000D+00  8.3001473825274D-02  1.6128199684598D+00
   107  1.0600000000000D+00  5.9079172845682D-02  1.6133953397585D+00
   108  1.0700000000000D+00  3.6459660199003D-02  1.6105455799277D+00
   109  1.0800000000000D+00  1.5153393444472D-02  1.6043019622685D+00
   110  1.0900000000000D+00 -4.8356750654152D-03  1.5947125920518D+00
   111  1.1000000000000D+00 -2.3509872048029D-02  1.5818419985688D+00
   112  1.1100000000000D+00 -4.0877534564740D-02  1.5657706120028D+00
   113  1.1200000000000D+00 -5.6952702427253D-02  1.5465941307119D+00
   114  1.1300000000000D+00 -7.1754775825557D-02  1.5244227855299D+00
   115  1.1400000000000D+00 -8.5308142491860D-02  1.4993805083265D+00
   116  1.1500000000000D+00 -9.7641779020865D-02  1.4716040130689D+00
   117  1.1600000000000D+00 -1.0878883107317D-01  1.4412417980758D+00
   118  1.1700000000000D+00 -1.1878617730828D-01  1.4084530787837D+00
   119  1.1800000000000D+00 -1.2767398195988D-01  1.3734066606978D+00
   120  1.1900000000000D+00 -1.3549524095296D-01  1.3362797626736D+00
   121  1.2000000000000D+00 -1.4229532636113D-01  1.2972568007592D+00
   122  1.2100000000000D+00 -1.4812153391404D-01  1.2565281429753D+00
   123  1.2200000000000D+00 -1.5302263809681D-01  1.2142888454752D+00
   124  1.2300000000000D+00 -1.5704845908603D-01  1.1707373803353D+00
   125  1.2400000000000D+00 -1.6024944549842D-01  1.1260743649914D+00
   126  1.2500000000000D+00 -1.6267627675677D-01  1.0805013032467D+00
   127  1.2600000000000D+00 -1.6437948827096D-01  1.0342193470982D+00
   128  1.2700000000000D+00 -1.6540912230363D-01  9.8742808814415D-01
   129  1.2800000000000D+00 -1.6581440726244D-01  9.4032438726042D-01
   130  1.2900000000000D+00 -1.6564346722317D-01  8.9310124989443D-01
   131  1.3000000000000D+00 -1.6494306326216D-01  8.4594675389082D-01
   132  1.3100000000000D+00 -1.6375836801798D-01  7.9904303662839D-01
   133  1.3200000000000D+00 -1.6213277374716D-01  7.5256534630962D-01
   134  1.3300000000000D+00 -1.6010773418009D-01  7.0668116222235D-01
   135  1.3400000000000D+00 -1.5772264008898D-01  6.6154938823143D-01
   136  1.3500000000000D+00 -1.5501472740025D-01  6.1731962162385D-01
   137  1.3600000000000D+00 -1.5201901704700D-01  5.7413150010595D-01
   138  1.3700000000000D+00 -1.4876828489972D-01  5.3211412816213D-01
   139  1.3800000000000D+00 -1.4529305956192D-01  4.9138558248765D-01
   140  1.3900000000000D+00 -1.4162164626663D-01  4.5205249746626D-01
   141  1.4000000000000D+00 -1.3778017380287D-01  4.1420972841151D-01
   142  1.4100000000000D+00 -1.3379266193606D-01  3.7794009133704D-01
   143  1.4200000000000D+00 -1.2968110627690D-01  3.4331417715137D-01
   144  1.4300000000000D+00 -1.2546557727869D-01  3.1039023630250D-01
   145  1.4400000000000D+00 -1.2116433028100D-01  2.7921413156600D-01
   146  1.4500000000000D+00 -1.1679392306646D-01  2.4981935391805D-01
   147  1.4600000000000D+00 -1.1236933780111D-01  2.2222709775186D-01
   148  1.4700000000000D+00 -1.0790410298484D-01  1.9644638639126D-01
   149  1.4800000000000D+00 -1.0341041618049D-01  1.7247426225881D-01
   150  1.4900000000000D+00 -9.8899256411726D-02  1.5029599445119D-01
   151  1.5000000000000D+00 -9.4380517785119D-02  1.2988548385072D-01
   152  1.5100000000000D+00 -8.9863016341835D-02  1.1120507788214D-01
   153  1.5200000000000D+00 -8.5354669188111D-02  9.4206410162858D-02
   154  1.5300000000000D+00 -8.0862851464643D-02  7.8832357119570D-02
   155  1.5400000000000D+00 -7.6394722258420D-02  6.5018762059557D-02
   156  1.5500000000000D+00 -7.1957640697702D-02  5.2696670168842D-02
   157  1.5600000000000D+00 -6.7559277855162D-02  4.1792995872413D-02
   158  1.5700000000000D+00 -6.3207654682255D-02  3.2230839173162D-02
   159  1.5800000000000D+00 -5.8911253069014D-02  2.3930384392439D-02
   160  1.5900000000000D+00 -5.4679054917625D-02  1.6809486912230D-02
   161  1.6000000000000D+00 -5.0520573789166D-02  1.0784343431511D-02
   162  1.6100000000000D+00 -4.6445859611466D-02  5.7701137640697D-03
   163  1.6200000000000D+00 -4.2465480855852D-02  1.6815223398218D-03
   164  1.6300000000000D+00 -3.8590486298975D-02 -1.5665655290961D-03
   165  1.6400000000000D+00 -3.4832346181362D-02 -4.0585972713199D-03
   166  1.6500000000000D+00 -3.1202875671210D-02 -5.8778164923252D-03
   167  1.6600000000000D+00 -2.7714141627037D-02 -7.1057789735460D-03
   168  1.6700000000000D+00 -2.4378355589517D-02 -7.8219010445527D-03
   169  1.6800000000000D+00 -2.1207754763099D-02 -8.1030416594759D-03
   170  1.6900000000000D+00 -1.8214474040271D-02 -8.0231176892493D-03
   171  1.7000000000000D+00 -1.5410411193035D-02 -7.6527528585444D-03
   172  1.7100000000000D+00 -1.2807088413926D-02 -7.0589593928974D-03
   173  1.7200000000000D+00 -1.0415512417304D-02 -6.3048523380302D-03
   174  1.7300000000000D+00 -8.2460362280438D-03 -5.4493951924208D-03
   175  1.7400000000000D+00 -6.3082249057942D-03 -4.5471765900524D-03
   176  1.7500000000000D+00 -4.6111578025593D-03 -3.6492514165388D-03
   177  1.7600000000000D+00 -3.1620303559352D-03 -2.7998960693613D-03
   178  1.7700000000000D+00 -1.9645716882326D-03 -2.0308414014008D-03
   179  1.7800000000000D+00 -1.0258963958725D-03 -1.3822644985161D-03
   180  1.7900000000000D+00 -3.5964109883426D-04 -9.2758028516351D-04
   181  1.8000000000000D+00  3.6369520879127D-05 -6.8776677154304D-04
   182  1.8100000000000D+00  1.8560541577166D-04 -5.1472332358898D-04
   183  1.8200000000000D+00  1.3401099103411D-04 -2.6132635538087D-04
   184  1.8300000000000D+00  1.8664610423736D-05 -3.1820004832225D-05
   185  1.8400000000000D+00 -2.8920001828555D-05  4.6591432418086D-05
   186  1.8500000000000D+00 -1.2828757428496D-05  1.9652340821761D-05
   187  1.8600000000000D+00  5.1840111358501D-06 -9.2479745969207D-06
   188  1.8700000000000D+00  4.3731700568824D-06 -7.6224173578935D-06
   189  1.8800000000000D+00 -3.0736699231656D-07  8.4664643807604D-07
   190  1.8900000000000D+00 -4.7625038314748D-07  1.3118379676530D-06
   191  1.9000000000000D+00  0.0000000000000D+00  0.0000000000000D+00
   192  1.9100000000000D+00  0.0000000000000D+00  0.0000000000000D+00
   193  1.9200000000000D+00  0.0000000000000D+00  0.0000000000000D+00
   194  1.9300000000000D+00  0.0000000000000D+00  0.0000000000000D+00
   195  1.9400000000000D+00  0.0000000000000D+00  0.0000000000000D+00
   196  1.9500000000000D+00  0.0000000000000D+00  0.0000000000000D+00
   197  1.9600000000000D+00  0.0000000000000D+00  0.0000000000000D+00
   198  1.9700000000000D+00  0.0000000000000D+00  0.0000000000000D+00
   199  1.9800000000000D+00  0.0000000000000D+00  0.0000000000000D+00
   200  1.9900000000000D+00  0.0000000000000D+00  0.0000000000000D+00
   201  2.0000000000000D+00  0.0000000000000D+00  0.0000000000000D+00
   202  2.0100000000000D+00  0.0000000000000D+00  0.0000000000000D+00
   203  2.0200000000000D+00  0.0000000000000D+00  0.0000000000000D+00
   204  2.0300000000000D+00  0.0000000000000D+00  0.0000000000000D+00
   205  2.0400000000000D+00  0.0000000000000D+00  0.0000000000000D+00
   206  2.0500000000000D+00  0.0000000000000D+00  0.0000000000000D+00
   207  2.0600000000000D+00  0.0000000000000D+00  0.0000000000000D+00
   208  2.0700000000000D+00  0.0000000000000D+00  0.0000000000000D+00
   209  2.0800000000000D+00  0.0000000000000D+00  0.0000000000000D+00
   210  2.0900000000000D+00  0.0000000000000D+00  0.0000000000000D+00
   211  2.1000000000000D+00  0.0000000000000D+00  0.0000000000000D+00
   212  2.1100000000000D+00  0.0000000000000D+00  0.0000000000000D+00
   213  2.1200000000000D+00  0.0000000000000D+00  0.0000000000000D+00
   214  2.1300000000000D+00  0.0000000000000D+00  0.0000000000000D+00
   215  2.1400000000000D+00  0.0000000000000D+00  0.0000000000000D+00
   216  2.1500000000000D+00  0.0000000000000D+00  0.0000000000000D+00
   217  2.1600000000000D+00  0.0000000000000D+00  0.0000000000000D+00
   218  2.1700000000000D+00  0.0000000000000D+00  0.0000000000000D+00
   219  2.1800000000000D+00  0.0000000000000D+00  0.0000000000000D+00
   220  2.1900000000000D+00  0.0000000000000D+00  0.0000000000000D+00
   221  2.2000000000000D+00  0.0000000000000D+00  0.0000000000000D+00
   222  2.2100000000000D+00  0.0000000000000D+00  0.0000000000000D+00
   223  2.2200000000000D+00  0.0000000000000D+00  0.0000000000000D+00
   224  2.2300000000000D+00  0.0000000000000D+00  0.0000000000000D+00
   225  2.2400000000000D+00  0.0000000000000D+00  0.0000000000000D+00
   226  2.2500000000000D+00  0.0000000000000D+00  0.0000000000000D+00
   227  2.2600000000000D+00  0.0000000000000D+00  0.0000000000000D+00
   228  2.2700000000000D+00  0.0000000000000D+00  0.0000000000000D+00
   229  2.2800000000000D+00  0.0000000000000D+00  0.0000000000000D+00
   230  2.2900000000000D+00  0.0000000000000D+00  0.0000000000000D+00
   231  2.3000000000000D+00  0.0000000000000D+00  0.0000000000000D+00
   232  2.3100000000000D+00  0.0000000000000D+00  0.0000000000000D+00
   233  2.3200000000000D+00  0.0000000000000D+00  0.0000000000000D+00
   234  2.3300000000000D+00  0.0000000000000D+00  0.0000000000000D+00
   235  2.3400000000000D+00  0.0000000000000D+00  0.0000000000000D+00
   236  2.3500000000000D+00  0.0000000000000D+00  0.0000000000000D+00
   237  2.3600000000000D+00  0.0000000000000D+00  0.0000000000000D+00
   238  2.3700000000000D+00  0.0000000000000D+00  0.0000000000000D+00
   239  2.3800000000000D+00  0.0000000000000D+00  0.0000000000000D+00
   240  2.3900000000000D+00  0.0000000000000D+00  0.0000000000000D+00
   241  2.4000000000000D+00  0.0000000000000D+00  0.0000000000000D+00
   242  2.4100000000000D+00  0.0000000000000D+00  0.0000000000000D+00
   243  2.4200000000000D+00  0.0000000000000D+00  0.0000000000000D+00
   244  2.4300000000000D+00  0.0000000000000D+00  0.0000000000000D+00
   245  2.4400000000000D+00  0.0000000000000D+00  0.0000000000000D+00
   246  2.4500000000000D+00  0.0000000000000D+00  0.0000000000000D+00
   247  2.4600000000000D+00  0.0000000000000D+00  0.0000000000000D+00
   248  2.4700000000000D+00  0.0000000000000D+00  0.0000000000000D+00
   249  2.4800000000000D+00  0.0000000000000D+00  0.0000000000000D+00
   250  2.4900000000000D+00  0.0000000000000D+00  0.0000000000000D+00
   251  2.5000000000000D+00  0.0000000000000D+00  0.0000000000000D+00
   252  2.5100000000000D+00  0.0000000000000D+00  0.0000000000000D+00
   253  2.5200000000000D+00  0.0000000000000D+00  0.0000000000000D+00
   254  2.5300000000000D+00  0.0000000000000D+00  0.0000000000000D+00
   255  2.5400000000000D+00  0.0000000000000D+00  0.0000000000000D+00
   256  2.5500000000000D+00  0.0000000000000D+00  0.0000000000000D+00
   257  2.5600000000000D+00  0.0000000000000D+00  0.0000000000000D+00
   258  2.5700000000000D+00  0.0000000000000D+00  0.0000000000000D+00
   259  2.5800000000000D+00  0.0000000000000D+00  0.0000000000000D+00
   260  2.5900000000000D+00  0.0000000000000D+00  0.0000000000000D+00
   261  2.6000000000000D+00  0.0000000000000D+00  0.0000000000000D+00
   262  2.6100000000000D+00  0.0000000000000D+00  0.0000000000000D+00
   263  2.6200000000000D+00  0.0000000000000D+00  0.0000000000000D+00
   264  2.6300000000000D+00  0.0000000000000D+00  0.0000000000000D+00
   265  2.6400000000000D+00  0.0000000000000D+00  0.0000000000000D+00
   266  2.6500000000000D+00  0.0000000000000D+00  0.0000000000000D+00
   267  2.6600000000000D+00  0.0000000000000D+00  0.0000000000000D+00
   268  2.6700000000000D+00  0.0000000000000D+00  0.0000000000000D+00
   269  2.6800000000000D+00  0.0000000000000D+00  0.0000000000000D+00
   270  2.6900000000000D+00  0.0000000000000D+00  0.0000000000000D+00
   271  2.7000000000000D+00  0.0000000000000D+00  0.0000000000000D+00
   272  2.7100000000000D+00  0.0000000000000D+00  0.0000000000000D+00
   273  2.7200000000000D+00  0.0000000000000D+00  0.0000000000000D+00
   274  2.7300000000000D+00  0.0000000000000D+00  0.0000000000000D+00
   275  2.7400000000000D+00  0.0000000000000D+00  0.0000000000000D+00
   276  2.7500000000000D+00  0.0000000000000D+00  0.0000000000000D+00
   277  2.7600000000000D+00  0.0000000000000D+00  0.0000000000000D+00
   278  2.7700000000000D+00  0.0000000000000D+00  0.0000000000000D+00
   279  2.7800000000000D+00  0.0000000000000D+00  0.0000000000000D+00
   280  2.7900000000000D+00  0.0000000000000D+00  0.0000000000000D+00
   281  2.8000000000000D+00  0.0000000000000D+00  0.0000000000000D+00
   282  2.8100000000000D+00  0.0000000000000D+00  0.0000000000000D+00
   283  2.8200000000000D+00  0.0000000000000D+00  0.0000000000000D+00
   284  2.8300000000000D+00  0.0000000000000D+00  0.0000000000000D+00
   285  2.8400000000000D+00  0.0000000000000D+00  0.0000000000000D+00
   286  2.8500000000000D+00  0.0000000000000D+00  0.0000000000000D+00
   287  2.8600000000000D+00  0.0000000000000D+00  0.0000000000000D+00
   288  2.8700000000000D+00  0.0000000000000D+00  0.0000000000000D+00
   289  2.8800000000000D+00  0.0000000000000D+00  0.0000000000000D+00
   290  2.8900000000000D+00  0.0000000000000D+00  0.0000000000000D+00
   291  2.9000000000000D+00  0.0000000000000D+00  0.0000000000000D+00
   292  2.9100000000000D+00  0.0000000000000D+00  0.0000000000000D+00
   293  2.9200000000000D+00  0.0000000000000D+00  0.0000000000000D+00
   294  2.9300000000000D+00  0.0000000000000D+00  0.0000000000000D+00
   295  2.9400000000000D+00  0.0000000000000D+00  0.0000000000000D+00
   296  2.9500000000000D+00  0.0000000000000D+00  0.0000000000000D+00
   297  2.9600000000000D+00  0.0000000000000D+00  0.0000000000000D+00
   298  2.9700000000000D+00  0.0000000000000D+00  0.0000000000000D+00
   299  2.9800000000000D+00  0.0000000000000D+00  0.0000000000000D+00
   300  2.9900000000000D+00  0.0000000000000D+00  0.0000000000000D+00
   301  3.0000000000000D+00  0.0000000000000D+00  0.0000000000000D+00
   302  3.0100000000000D+00  0.0000000000000D+00  0.0000000000000D+00
   303  3.0200000000000D+00  0.0000000000000D+00  0.0000000000000D+00
   304  3.0300000000000D+00  0.0000000000000D+00  0.0000000000000D+00
   305  3.0400000000000D+00  0.0000000000000D+00  0.0000000000000D+00
   306  3.0500000000000D+00  0.0000000000000D+00  0.0000000000000D+00
   307  3.0600000000000D+00  0.0000000000000D+00  0.0000000000000D+00
   308  3.0700000000000D+00  0.0000000000000D+00  0.0000000000000D+00
   309  3.0800000000000D+00  0.0000000000000D+00  0.0000000000000D+00
   310  3.0900000000000D+00  0.0000000000000D+00  0.0000000000000D+00
   311  3.1000000000000D+00  0.0000000000000D+00  0.0000000000000D+00
   312  3.1100000000000D+00  0.0000000000000D+00  0.0000000000000D+00
   313  3.1200000000000D+00  0.0000000000000D+00  0.0000000000000D+00
   314  3.1300000000000D+00  0.0000000000000D+00  0.0000000000000D+00
   315  3.1400000000000D+00  0.0000000000000D+00  0.0000000000000D+00
   316  3.1500000000000D+00  0.0000000000000D+00  0.0000000000000D+00
   317  3.1600000000000D+00  0.0000000000000D+00  0.0000000000000D+00
   318  3.1700000000000D+00  0.0000000000000D+00  0.0000000000000D+00
   319  3.1800000000000D+00  0.0000000000000D+00  0.0000000000000D+00
   320  3.1900000000000D+00  0.0000000000000D+00  0.0000000000000D+00
   321  3.2000000000000D+00  0.0000000000000D+00  0.0000000000000D+00
   322  3.2100000000000D+00  0.0000000000000D+00  0.0000000000000D+00
   323  3.2200000000000D+00  0.0000000000000D+00  0.0000000000000D+00
   324  3.2300000000000D+00  0.0000000000000D+00  0.0000000000000D+00
   325  3.2400000000000D+00  0.0000000000000D+00  0.0000000000000D+00
   326  3.2500000000000D+00  0.0000000000000D+00  0.0000000000000D+00
   327  3.2600000000000D+00  0.0000000000000D+00  0.0000000000000D+00
   328  3.2700000000000D+00  0.0000000000000D+00  0.0000000000000D+00
   329  3.2800000000000D+00  0.0000000000000D+00  0.0000000000000D+00
   330  3.2900000000000D+00  0.0000000000000D+00  0.0000000000000D+00
   331  3.3000000000000D+00  0.0000000000000D+00  0.0000000000000D+00
   332  3.3100000000000D+00  0.0000000000000D+00  0.0000000000000D+00
   333  3.3200000000000D+00  0.0000000000000D+00  0.0000000000000D+00
   334  3.3300000000000D+00  0.0000000000000D+00  0.0000000000000D+00
   335  3.3400000000000D+00  0.0000000000000D+00  0.0000000000000D+00
   336  3.3500000000000D+00  0.0000000000000D+00  0.0000000000000D+00
   337  3.3600000000000D+00  0.0000000000000D+00  0.0000000000000D+00
   338  3.3700000000000D+00  0.0000000000000D+00  0.0000000000000D+00
   339  3.3800000000000D+00  0.0000000000000D+00  0.0000000000000D+00
   340  3.3900000000000D+00  0.0000000000000D+00  0.0000000000000D+00
   341  3.4000000000000D+00  0.0000000000000D+00  0.0000000000000D+00
   342  3.4100000000000D+00  0.0000000000000D+00  0.0000000000000D+00
   343  3.4200000000000D+00  0.0000000000000D+00  0.0000000000000D+00
   344  3.4300000000000D+00  0.0000000000000D+00  0.0000000000000D+00
   345  3.4400000000000D+00  0.0000000000000D+00  0.0000000000000D+00
   346  3.4500000000000D+00  0.0000000000000D+00  0.0000000000000D+00
   347  3.4600000000000D+00  0.0000000000000D+00  0.0000000000000D+00
   348  3.4700000000000D+00  0.0000000000000D+00  0.0000000000000D+00
   349  3.4800000000000D+00  0.0000000000000D+00  0.0000000000000D+00
   350  3.4900000000000D+00  0.0000000000000D+00  0.0000000000000D+00
   351  3.5000000000000D+00  0.0000000000000D+00  0.0000000000000D+00
   352  3.5100000000000D+00  0.0000000000000D+00  0.0000000000000D+00
   353  3.5200000000000D+00  0.0000000000000D+00  0.0000000000000D+00
   354  3.5300000000000D+00  0.0000000000000D+00  0.0000000000000D+00
   355  3.5400000000000D+00  0.0000000000000D+00  0.0000000000000D+00
   356  3.5500000000000D+00  0.0000000000000D+00  0.0000000000000D+00
   357  3.5600000000000D+00  0.0000000000000D+00  0.0000000000000D+00
   358  3.5700000000000D+00  0.0000000000000D+00  0.0000000000000D+00
   359  3.5800000000000D+00  0.0000000000000D+00  0.0000000000000D+00
   360  3.5900000000000D+00  0.0000000000000D+00  0.0000000000000D+00
   361  3.6000000000000D+00  0.0000000000000D+00  0.0000000000000D+00
   362  3.6100000000000D+00  0.0000000000000D+00  0.0000000000000D+00
   363  3.6200000000000D+00  0.0000000000000D+00  0.0000000000000D+00
   364  3.6300000000000D+00  0.0000000000000D+00  0.0000000000000D+00
   365  3.6400000000000D+00  0.0000000000000D+00  0.0000000000000D+00
   366  3.6500000000000D+00  0.0000000000000D+00  0.0000000000000D+00
   367  3.6600000000000D+00  0.0000000000000D+00  0.0000000000000D+00
   368  3.6700000000000D+00  0.0000000000000D+00  0.0000000000000D+00
   369  3.6800000000000D+00  0.0000000000000D+00  0.0000000000000D+00
   370  3.6900000000000D+00  0.0000000000000D+00  0.0000000000000D+00
   371  3.7000000000000D+00  0.0000000000000D+00  0.0000000000000D+00
   372  3.7100000000000D+00  0.0000000000000D+00  0.0000000000000D+00
   373  3.7200000000000D+00  0.0000000000000D+00  0.0000000000000D+00
   374  3.7300000000000D+00  0.0000000000000D+00  0.0000000000000D+00
   375  3.7400000000000D+00  0.0000000000000D+00  0.0000000000000D+00
   376  3.7500000000000D+00  0.0000000000000D+00  0.0000000000000D+00
   377  3.7600000000000D+00  0.0000000000000D+00  0.0000000000000D+00
   378  3.7700000000000D+00  0.0000000000000D+00  0.0000000000000D+00
   379  3.7800000000000D+00  0.0000000000000D+00  0.0000000000000D+00
   380  3.7900000000000D+00  0.0000000000000D+00  0.0000000000000D+00
   381  3.8000000000000D+00  0.0000000000000D+00  0.0000000000000D+00
   382  3.8100000000000D+00  0.0000000000000D+00  0.0000000000000D+00
   383  3.8200000000000D+00  0.0000000000000D+00  0.0000000000000D+00
   384  3.8300000000000D+00  0.0000000000000D+00  0.0000000000000D+00
   385  3.8400000000000D+00  0.0000000000000D+00  0.0000000000000D+00
   386  3.8500000000000D+00  0.0000000000000D+00  0.0000000000000D+00
   387  3.8600000000000D+00  0.0000000000000D+00  0.0000000000000D+00
   388  3.8700000000000D+00  0.0000000000000D+00  0.0000000000000D+00
   389  3.8800000000000D+00  0.0000000000000D+00  0.0000000000000D+00
   390  3.8900000000000D+00  0.0000000000000D+00  0.0000000000000D+00
   391  3.9000000000000D+00  0.0000000000000D+00  0.0000000000000D+00
   392  3.9100000000000D+00  0.0000000000000D+00  0.0000000000000D+00
   393  3.9200000000000D+00  0.0000000000000D+00  0.0000000000000D+00
   394  3.9300000000000D+00  0.0000000000000D+00  0.0000000000000D+00
   395  3.9400000000000D+00  0.0000000000000D+00  0.0000000000000D+00
   396  3.9500000000000D+00  0.0000000000000D+00  0.0000000000000D+00
   397  3.9600000000000D+00  0.0000000000000D+00  0.0000000000000D+00
   398  3.9700000000000D+00  0.0000000000000D+00  0.0000000000000D+00
   399  3.9800000000000D+00  0.0000000000000D+00  0.0000000000000D+00
   400  3.9900000000000D+00  0.0000000000000D+00  0.0000000000000D+00
   401  4.0000000000000D+00  0.0000000000000D+00  0.0000000000000D+00
   402  4.0100000000000D+00  0.0000000000000D+00  0.0000000000000D+00
   403  4.0200000000000D+00  0.0000000000000D+00  0.0000000000000D+00
   404  4.0300000000000D+00  0.0000000000000D+00  0.0000000000000D+00
   405  4.0400000000000D+00  0.0000000000000D+00  0.0000000000000D+00
   406  4.0500000000000D+00  0.0000000000000D+00  0.0000000000000D+00
   407  4.0600000000000D+00  0.0000000000000D+00  0.0000000000000D+00
   408  4.0700000000000D+00  0.0000000000000D+00  0.0000000000000D+00
   409  4.0800000000000D+00  0.0000000000000D+00  0.0000000000000D+00
   410  4.0900000000000D+00  0.0000000000000D+00  0.0000000000000D+00
   411  4.1000000000000D+00  0.0000000000000D+00  0.0000000000000D+00
   412  4.1100000000000D+00  0.0000000000000D+00  0.0000000000000D+00
   413  4.1200000000000D+00  0.0000000000000D+00  0.0000000000000D+00
   414  4.1300000000000D+00  0.0000000000000D+00  0.0000000000000D+00
   415  4.1400000000000D+00  0.0000000000000D+00  0.0000000000000D+00
   416  4.1500000000000D+00  0.0000000000000D+00  0.0000000000000D+00
   417  4.1600000000000D+00  0.0000000000000D+00  0.0000000000000D+00
   418  4.1700000000000D+00  0.0000000000000D+00  0.0000000000000D+00
   419  4.1800000000000D+00  0.0000000000000D+00  0.0000000000000D+00
   420  4.1900000000000D+00  0.0000000000000D+00  0.0000000000000D+00
   421  4.2000000000000D+00  0.0000000000000D+00  0.0000000000000D+00
   422  4.2100000000000D+00  0.0000000000000D+00  0.0000000000000D+00