Cu    ONCVPSP-3.3.0  r_core=   1.26204   1.45626   1.76249
     29.0000     19.0000      220117    zatom,zion,pspd
     8      11   2     4   600     0    pspcod,pspxc,lmax,lloc,mmax,r2well
  5.99000000  0.00000000  0.00000000    rchrg fchrg qchrg
     2     2     2     0     0    nproj
     1     1           extension_switch
   0                         5.0182282430814D+00 -4.0122404564586D-01
     1  0.0000000000000D+00 -3.4325080555675D-09 -1.0671551642361D-08
     2  1.0000000000000D-02  1.0417388478728D-01  3.6978204185367D-02
     3  2.0000000000000D-02  2.0789667518735D-01  7.3601537632532D-02
     4  3.0000000000000D-02  3.1072085866644D-01  1.0952225256451D-01
     5  4.0000000000000D-02  4.1220603606135D-01  1.4440670432421D-01
     6  5.0000000000000D-02  5.1192235332389D-01  1.7794204872819D-01
     7  6.0000000000000D-02  6.0945378583876D-01  2.0984252215994D-01
     8  7.0000000000000D-02  7.0440123029355D-01  2.3985517813449D-01
     9  8.0000000000000D-02  7.9638536251183D-01  2.6776496473812D-01
    10  9.0000000000000D-02  8.8504922382895D-01  2.9339904029802D-01
    11  1.0000000000000D-01  9.7006050341626D-01  3.1663023962114D-01
    12  1.1000000000000D-01  1.0511134893531D+00  3.3737961986914D-01
    13  1.2000000000000D-01  1.1279306671056D+00  3.5561803328917D-01
    14  1.3000000000000D-01  1.2002639502859D+00  3.7136669324690D-01
    15  1.4000000000000D-01  1.2678955350235D+00  3.8469671993942D-01
    16  1.5000000000000D-01  1.3306383758483D+00  3.9572767241687D-01
    17  1.6000000000000D-01  1.3883362875572D+00  4.0462509371997D-01
    18  1.7000000000000D-01  1.4408636839714D+00  4.1159711565529D-01
    19  1.8000000000000D-01  1.4881249706780D+00  4.1689018859578D-01
    20  1.9000000000000D-01  1.5300536146719D+00  4.2078401934227D-01
    21  2.0000000000000D-01  1.5666109191538D+00  4.2358581616455D-01
    22  2.1000000000000D-01  1.5977845365064D+00  4.2562395433910D-01
    23  2.2000000000000D-01  1.6235867565647D+00  4.2724118753093D-01
    24  2.3000000000000D-01  1.6440526106492D+00  4.2878753998482D-01
    25  2.4000000000000D-01  1.6592378343683D+00  4.3061302149849D-01
    26  2.5000000000000D-01  1.6692167338835D+00  4.3306031139683D-01
    27  2.6000000000000D-01  1.6740800011219D+00  4.3645755911444D-01
    28  2.7000000000000D-01  1.6739325233165D+00  4.4111144748186D-01
    29  2.8000000000000D-01  1.6688912312400D+00  4.4730066040956D-01
    30  2.9000000000000D-01  1.6590830286134D+00  4.5526988944267D-01
    31  3.0000000000000D-01  1.6446428424320D+00  4.6522450374102D-01
    32  3.1000000000000D-01  1.6257118304336D+00  4.7732599559854D-01
    33  3.2000000000000D-01  1.6024357776865D+00  4.9168829887895D-01
    34  3.3000000000000D-01  1.5749637093977D+00  5.0837506098307D-01
    35  3.4000000000000D-01  1.5434467416217D+00  5.2739793048708D-01
    36  3.5000000000000D-01  1.5080371856965D+00  5.4871590275114D-01
    37  3.6000000000000D-01  1.4688879160680D+00  5.7223574496678D-01
    38  3.7000000000000D-01  1.4261520047995D+00  5.9781350069257D-01
    39  3.8000000000000D-01  1.3799826196405D+00  6.2525705232845D-01
    40  3.9000000000000D-01  1.3305331761671D+00  6.5432969862563D-01
    41  4.0000000000000D-01  1.2779577283417D+00  6.8475468363482D-01
    42  4.1000000000000D-01  1.2224115759943D+00  7.1622059387417D-01
    43  4.2000000000000D-01  1.1640520623302D+00  7.4838752234020D-01
    44  4.3000000000000D-01  1.1030395297220D+00  7.8089388165861D-01
    45  4.4000000000000D-01  1.0395383978593D+00  8.1336373451402D-01
    46  4.5000000000000D-01  9.7371832489878D-01  8.4541449780271D-01
    47  4.6000000000000D-01  9.0575540964838D-01  8.7666486797608D-01
    48  4.7000000000000D-01  8.3583339110798D-01  9.0674280898298D-01
    49  4.8000000000000D-01  7.6414480090416D-01  9.3529344122728D-01
    50  4.9000000000000D-01  6.9089202433775D-01  9.6198667011945D-01
    51  5.0000000000000D-01  6.1628822690936D-01  9.8652439615047D-01
    52  5.1000000000000D-01  5.4055810528990D-01  1.0086471549148D+00
    53  5.2000000000000D-01  4.6393842473253D-01  1.0281400450709D+00
    54  5.3000000000000D-01  3.8667830882727D-01  1.0448378147008D+00
    55  5.4000000000000D-01  3.0903925220741D-01  1.0586289916729D+00
    56  5.5000000000000D-01  2.3129483225803D-01  1.0694589612243D+00
    57  5.6000000000000D-01  1.5373010193340D-01  1.0773319136646D+00
    58  5.7000000000000D-01  7.6640652356797D-02  1.0823116065515D+00
    59  5.8000000000000D-01  3.3134084062566D-04  1.0845209085225D+00
    60  5.9000000000000D-01 -7.4885312845490D-02  1.0841401156508D+00
    61  6.0000000000000D-01 -1.4869105179791D-01  1.0814040554560D+00
    62  6.1000000000000D-01 -2.2076411147098D-01  1.0765980178580D+00
    63  6.2000000000000D-01 -2.9078172881046D-01  1.0700525761402D+00
    64  6.3000000000000D-01 -3.5842289972792D-01  1.0621373838238D+00
    65  6.4000000000000D-01 -4.2337134733636D-01  1.0532540547169D+00
    66  6.5000000000000D-01 -4.8531865764273D-01  1.0438282531109D+00
    67  6.6000000000000D-01 -5.4396753444115D-01  1.0343011384218D+00
    68  6.7000000000000D-01 -5.9903512101316D-01  1.0251203233914D+00
    69  6.8000000000000D-01 -6.5025633303055D-01  1.0167305169036D+00
    70  6.9000000000000D-01 -6.9738714487962D-01  1.0095640311701D+00
    71  7.0000000000000D-01 -7.4020777050719D-01  1.0040313384113D+00
    72  7.1000000000000D-01 -7.7852567988848D-01  1.0005118640073D+00
    73  7.2000000000000D-01 -8.1217839335660D-01  9.9934520132395D-01
    74  7.3000000000000D-01 -8.4103599829928D-01  1.0008229280584D+00
    75  7.4000000000000D-01 -8.6500333611504D-01  1.0051811950151D+00
    76  7.5000000000000D-01 -8.8402181174529D-01  1.0125942459380D+00
    77  7.6000000000000D-01 -8.9807078355174D-01  1.0231690114304D+00
    78  7.7000000000000D-01 -9.0716849765052D-01  1.0369409014967D+00
    79  7.8000000000000D-01 -9.1137253795926D-01  1.0538709001014D+00
    80  7.9000000000000D-01 -9.1077977104456D-01  1.0738440417304D+00
    81  8.0000000000000D-01 -9.0552577322631D-01  1.0966693246953D+00
    82  8.1000000000000D-01 -8.9578373615683D-01  1.1220810893058D+00
    83  8.2000000000000D-01 -8.8176285608572D-01  1.1497418615441D+00
    84  8.3000000000000D-01 -8.6370622107956D-01  1.1792466350204D+00
    85  8.4000000000000D-01 -8.4188821941980D-01  1.2101285363083D+00
    86  8.5000000000000D-01 -8.1661150108101D-01  1.2418657917812D+00
    87  8.6000000000000D-01 -7.8820353242956D-01  1.2738898883149D+00
    88  8.7000000000000D-01 -7.5701279191812D-01  1.3055947962120D+00
    89  8.8000000000000D-01 -7.2340466143290D-01  1.3363471008893D+00
    90  8.9000000000000D-01 -6.8775707394013D-01  1.3654968707237D+00
    91  9.0000000000000D-01 -6.5045598305183D-01  1.3923890723375D+00
    92  9.1000000000000D-01 -6.1189072398284D-01  1.4163753318865D+00
    93  9.2000000000000D-01 -5.7244933801684D-01  1.4368258318497D+00
    94  9.3000000000000D-01 -5.3251393397316D-01  1.4531411276317D+00
    95  9.4000000000000D-01 -4.9245616023067D-01  1.4647636671100D+00
    96  9.5000000000000D-01 -4.5263285960168D-01  1.4711887991480D+00
    97  9.6000000000000D-01 -4.1338197676878D-01  1.4719750640437D+00
    98  9.7000000000000D-01 -3.7501878414506D-01  1.4667535697559D+00
    99  9.8000000000000D-01 -3.3783248687668D-01  1.4552362726057D+00
   100  9.9000000000000D-01 -3.0208326153809D-01  1.4372229992160D+00
   101  1.0000000000000D+00 -2.6799977583216D-01  1.4126070678311D+00
   102  1.0100000000000D+00 -2.3577722827953D-01  1.3813793919334D+00
   103  1.0200000000000D+00 -2.0557593806812D-01  1.3436309754150D+00
   104  1.0300000000000D+00 -1.7752050562012D-01  1.2995537374049D+00
   105  1.0400000000000D+00 -1.5169955442389D-01  1.2494396349729D+00
   106  1.0500000000000D+00 -1.2816605423057D-01  1.1936780834601D+00
   107  1.0600000000000D+00 -1.0693821608783D-01  1.1327517032791D+00
   108  1.0700000000000D+00 -8.8000938406974D-02  1.0672304561809D+00
   109  1.0800000000000D+00 -7.1307774188349D-02  9.9776426149750D-01
   110  1.0900000000000D+00 -5.6783379705982D-02  9.2507421269781D-01
   111  1.1000000000000D+00 -4.4326396303031D-02  8.4994254087784D-01
   112  1.1100000000000D+00 -3.3812709472176D-02  7.7320149454888D-01
   113  1.1200000000000D+00 -2.5099021490089D-02  6.9572132913856D-01
   114  1.1300000000000D+00 -1.8026668930156D-02  6.1839761466914D-01
   115  1.1400000000000D+00 -1.2425611421221D-02  5.4213808514300D-01
   116  1.1500000000000D+00 -8.1185150936432D-03  4.6784926206436D-01
   117  1.1600000000000D+00 -4.9248515039274D-03  3.9642309253529D-01
   118  1.1700000000000D+00 -2.6649312432985D-03  3.2872384886989D-01
   119  1.1800000000000D+00 -1.1637956207941D-03  2.6557551821775D-01
   120  1.1900000000000D+00 -2.5494563182129D-04  2.0774971129830D-01
   121  1.2000000000000D+00  2.1639019976777D-04  1.5595515369401D-01
   122  1.2100000000000D+00  3.9021807434100D-04  1.1082787116832D-01
   123  1.2200000000000D+00  3.8721149394704D-04  7.2923587021674D-02
   124  1.2300000000000D+00  3.0391006013101D-04  4.2668269334948D-02
   125  1.2400000000000D+00  2.0704603862737D-04  2.0251507911106D-02
   126  1.2500000000000D+00  1.5049655690236D-04  6.4935374368155D-03
   127  1.2600000000000D+00  1.2713116227014D-04  7.7434608215463D-04
   128  1.2700000000000D+00  5.5192840004070D-05 -2.7621440602100D-04
   129  1.2800000000000D+00 -8.4423354817322D-06  7.0107992517005D-05
   130  1.2900000000000D+00 -4.7938868756631D-06  4.9463769551263D-05
   131  1.3000000000000D+00  2.7240906768153D-06 -1.8860732711076D-05
   132  1.3100000000000D+00 -1.4872838574680D-07 -3.8426460195699D-07
   133  1.3200000000000D+00 -2.1702323739677D-07 -5.6071574713155D-07
   134  1.3300000000000D+00  0.0000000000000D+00  0.0000000000000D+00
   135  1.3400000000000D+00  0.0000000000000D+00  0.0000000000000D+00
   136  1.3500000000000D+00  0.0000000000000D+00  0.0000000000000D+00
   137  1.3600000000000D+00  0.0000000000000D+00  0.0000000000000D+00
   138  1.3700000000000D+00  0.0000000000000D+00  0.0000000000000D+00
   139  1.3800000000000D+00  0.0000000000000D+00  0.0000000000000D+00
   140  1.3900000000000D+00  0.0000000000000D+00  0.0000000000000D+00
   141  1.4000000000000D+00  0.0000000000000D+00  0.0000000000000D+00
   142  1.4100000000000D+00  0.0000000000000D+00  0.0000000000000D+00
   143  1.4200000000000D+00  0.0000000000000D+00  0.0000000000000D+00
   144  1.4300000000000D+00  0.0000000000000D+00  0.0000000000000D+00
   145  1.4400000000000D+00  0.0000000000000D+00  0.0000000000000D+00
   146  1.4500000000000D+00  0.0000000000000D+00  0.0000000000000D+00
   147  1.4600000000000D+00  0.0000000000000D+00  0.0000000000000D+00
   148  1.4700000000000D+00  0.0000000000000D+00  0.0000000000000D+00
   149  1.4800000000000D+00  0.0000000000000D+00  0.0000000000000D+00
   150  1.4900000000000D+00  0.0000000000000D+00  0.0000000000000D+00
   151  1.5000000000000D+00  0.0000000000000D+00  0.0000000000000D+00
   152  1.5100000000000D+00  0.0000000000000D+00  0.0000000000000D+00
   153  1.5200000000000D+00  0.0000000000000D+00  0.0000000000000D+00
   154  1.5300000000000D+00  0.0000000000000D+00  0.0000000000000D+00
   155  1.5400000000000D+00  0.0000000000000D+00  0.0000000000000D+00
   156  1.5500000000000D+00  0.0000000000000D+00  0.0000000000000D+00
   157  1.5600000000000D+00  0.0000000000000D+00  0.0000000000000D+00
   158  1.5700000000000D+00  0.0000000000000D+00  0.0000000000000D+00
   159  1.5800000000000D+00  0.0000000000000D+00  0.0000000000000D+00
   160  1.5900000000000D+00  0.0000000000000D+00  0.0000000000000D+00
   161  1.6000000000000D+00  0.0000000000000D+00  0.0000000000000D+00
   162  1.6100000000000D+00  0.0000000000000D+00  0.0000000000000D+00
   163  1.6200000000000D+00  0.0000000000000D+00  0.0000000000000D+00
   164  1.6300000000000D+00  0.0000000000000D+00  0.0000000000000D+00
   165  1.6400000000000D+00  0.0000000000000D+00  0.0000000000000D+00
   166  1.6500000000000D+00  0.0000000000000D+00  0.0000000000000D+00
   167  1.6600000000000D+00  0.0000000000000D+00  0.0000000000000D+00
   168  1.6700000000000D+00  0.0000000000000D+00  0.0000000000000D+00
   169  1.6800000000000D+00  0.0000000000000D+00  0.0000000000000D+00
   170  1.6900000000000D+00  0.0000000000000D+00  0.0000000000000D+00
   171  1.7000000000000D+00  0.0000000000000D+00  0.0000000000000D+00
   172  1.7100000000000D+00  0.0000000000000D+00  0.0000000000000D+00
   173  1.7200000000000D+00  0.0000000000000D+00  0.0000000000000D+00
   174  1.7300000000000D+00  0.0000000000000D+00  0.0000000000000D+00
   175  1.7400000000000D+00  0.0000000000000D+00  0.0000000000000D+00
   176  1.7500000000000D+00  0.0000000000000D+00  0.0000000000000D+00
   177  1.7600000000000D+00  0.0000000000000D+00  0.0000000000000D+00
   178  1.7700000000000D+00  0.0000000000000D+00  0.0000000000000D+00
   179  1.7800000000000D+00  0.0000000000000D+00  0.0000000000000D+00
   180  1.7900000000000D+00  0.0000000000000D+00  0.0000000000000D+00
   181  1.8000000000000D+00  0.0000000000000D+00  0.0000000000000D+00
   182  1.8100000000000D+00  0.0000000000000D+00  0.0000000000000D+00
   183  1.8200000000000D+00  0.0000000000000D+00  0.0000000000000D+00
   184  1.8300000000000D+00  0.0000000000000D+00  0.0000000000000D+00
   185  1.8400000000000D+00  0.0000000000000D+00  0.0000000000000D+00
   186  1.8500000000000D+00  0.0000000000000D+00  0.0000000000000D+00
   187  1.8600000000000D+00  0.0000000000000D+00  0.0000000000000D+00
   188  1.8700000000000D+00  0.0000000000000D+00  0.0000000000000D+00
   189  1.8800000000000D+00  0.0000000000000D+00  0.0000000000000D+00
   190  1.8900000000000D+00  0.0000000000000D+00  0.0000000000000D+00
   191  1.9000000000000D+00  0.0000000000000D+00  0.0000000000000D+00
   192  1.9100000000000D+00  0.0000000000000D+00  0.0000000000000D+00
   193  1.9200000000000D+00  0.0000000000000D+00  0.0000000000000D+00
   194  1.9300000000000D+00  0.0000000000000D+00  0.0000000000000D+00
   195  1.9400000000000D+00  0.0000000000000D+00  0.0000000000000D+00
   196  1.9500000000000D+00  0.0000000000000D+00  0.0000000000000D+00
   197  1.9600000000000D+00  0.0000000000000D+00  0.0000000000000D+00
   198  1.9700000000000D+00  0.0000000000000D+00  0.0000000000000D+00
   199  1.9800000000000D+00  0.0000000000000D+00  0.0000000000000D+00
   200  1.9900000000000D+00  0.0000000000000D+00  0.0000000000000D+00
   201  2.0000000000000D+00  0.0000000000000D+00  0.0000000000000D+00
   202  2.0100000000000D+00  0.0000000000000D+00  0.0000000000000D+00
   203  2.0200000000000D+00  0.0000000000000D+00  0.0000000000000D+00
   204  2.0300000000000D+00  0.0000000000000D+00  0.0000000000000D+00
   205  2.0400000000000D+00  0.0000000000000D+00  0.0000000000000D+00
   206  2.0500000000000D+00  0.0000000000000D+00  0.0000000000000D+00
   207  2.0600000000000D+00  0.0000000000000D+00  0.0000000000000D+00
   208  2.0700000000000D+00  0.0000000000000D+00  0.0000000000000D+00
   209  2.0800000000000D+00  0.0000000000000D+00  0.0000000000000D+00
   210  2.0900000000000D+00  0.0000000000000D+00  0.0000000000000D+00
   211  2.1000000000000D+00  0.0000000000000D+00  0.0000000000000D+00
   212  2.1100000000000D+00  0.0000000000000D+00  0.0000000000000D+00
   213  2.1200000000000D+00  0.0000000000000D+00  0.0000000000000D+00
   214  2.1300000000000D+00  0.0000000000000D+00  0.0000000000000D+00
   215  2.1400000000000D+00  0.0000000000000D+00  0.0000000000000D+00
   216  2.1500000000000D+00  0.0000000000000D+00  0.0000000000000D+00
   217  2.1600000000000D+00  0.0000000000000D+00  0.0000000000000D+00
   218  2.1700000000000D+00  0.0000000000000D+00  0.0000000000000D+00
   219  2.1800000000000D+00  0.0000000000000D+00  0.0000000000000D+00
   220  2.1900000000000D+00  0.0000000000000D+00  0.0000000000000D+00
   221  2.2000000000000D+00  0.0000000000000D+00  0.0000000000000D+00
   222  2.2100000000000D+00  0.0000000000000D+00  0.0000000000000D+00
   223  2.2200000000000D+00  0.0000000000000D+00  0.0000000000000D+00
   224  2.2300000000000D+00  0.0000000000000D+00  0.0000000000000D+00
   225  2.2400000000000D+00  0.0000000000000D+00  0.0000000000000D+00
   226  2.2500000000000D+00  0.0000000000000D+00  0.0000000000000D+00
   227  2.2600000000000D+00  0.0000000000000D+00  0.0000000000000D+00
   228  2.2700000000000D+00  0.0000000000000D+00  0.0000000000000D+00
   229  2.2800000000000D+00  0.0000000000000D+00  0.0000000000000D+00
   230  2.2900000000000D+00  0.0000000000000D+00  0.0000000000000D+00
   231  2.3000000000000D+00  0.0000000000000D+00  0.0000000000000D+00
   232  2.3100000000000D+00  0.0000000000000D+00  0.0000000000000D+00
   233  2.3200000000000D+00  0.0000000000000D+00  0.0000000000000D+00
   234  2.3300000000000D+00  0.0000000000000D+00  0.0000000000000D+00
   235  2.3400000000000D+00  0.0000000000000D+00  0.0000000000000D+00
   236  2.3500000000000D+00  0.0000000000000D+00  0.0000000000000D+00
   237  2.3600000000000D+00  0.0000000000000D+00  0.0000000000000D+00
   238  2.3700000000000D+00  0.0000000000000D+00  0.0000000000000D+00
   239  2.3800000000000D+00  0.0000000000000D+00  0.0000000000000D+00
   240  2.3900000000000D+00  0.0000000000000D+00  0.0000000000000D+00
   241  2.4000000000000D+00  0.0000000000000D+00  0.0000000000000D+00
   242  2.4100000000000D+00  0.0000000000000D+00  0.0000000000000D+00
   243  2.4200000000000D+00  0.0000000000000D+00  0.0000000000000D+00
   244  2.4300000000000D+00  0.0000000000000D+00  0.0000000000000D+00
   245  2.4400000000000D+00  0.0000000000000D+00  0.0000000000000D+00
   246  2.4500000000000D+00  0.0000000000000D+00  0.0000000000000D+00
   247  2.4600000000000D+00  0.0000000000000D+00  0.0000000000000D+00
   248  2.4700000000000D+00  0.0000000000000D+00  0.0000000000000D+00
   249  2.4800000000000D+00  0.0000000000000D+00  0.0000000000000D+00
   250  2.4900000000000D+00  0.0000000000000D+00  0.0000000000000D+00
   251  2.5000000000000D+00  0.0000000000000D+00  0.0000000000000D+00
   252  2.5100000000000D+00  0.0000000000000D+00  0.0000000000000D+00
   253  2.5200000000000D+00  0.0000000000000D+00  0.0000000000000D+00
   254  2.5300000000000D+00  0.0000000000000D+00  0.0000000000000D+00
   255  2.5400000000000D+00  0.0000000000000D+00  0.0000000000000D+00
   256  2.5500000000000D+00  0.0000000000000D+00  0.0000000000000D+00
   257  2.5600000000000D+00  0.0000000000000D+00  0.0000000000000D+00
   258  2.5700000000000D+00  0.0000000000000D+00  0.0000000000000D+00
   259  2.5800000000000D+00  0.0000000000000D+00  0.0000000000000D+00
   260  2.5900000000000D+00  0.0000000000000D+00  0.0000000000000D+00
   261  2.6000000000000D+00  0.0000000000000D+00  0.0000000000000D+00
   262  2.6100000000000D+00  0.0000000000000D+00  0.0000000000000D+00
   263  2.6200000000000D+00  0.0000000000000D+00  0.0000000000000D+00
   264  2.6300000000000D+00  0.0000000000000D+00  0.0000000000000D+00
   265  2.6400000000000D+00  0.0000000000000D+00  0.0000000000000D+00
   266  2.6500000000000D+00  0.0000000000000D+00  0.0000000000000D+00
   267  2.6600000000000D+00  0.0000000000000D+00  0.0000000000000D+00
   268  2.6700000000000D+00  0.0000000000000D+00  0.0000000000000D+00
   269  2.6800000000000D+00  0.0000000000000D+00  0.0000000000000D+00
   270  2.6900000000000D+00  0.0000000000000D+00  0.0000000000000D+00
   271  2.7000000000000D+00  0.0000000000000D+00  0.0000000000000D+00
   272  2.7100000000000D+00  0.0000000000000D+00  0.0000000000000D+00
   273  2.7200000000000D+00  0.0000000000000D+00  0.0000000000000D+00
   274  2.7300000000000D+00  0.0000000000000D+00  0.0000000000000D+00
   275  2.7400000000000D+00  0.0000000000000D+00  0.0000000000000D+00
   276  2.7500000000000D+00  0.0000000000000D+00  0.0000000000000D+00
   277  2.7600000000000D+00  0.0000000000000D+00  0.0000000000000D+00
   278  2.7700000000000D+00  0.0000000000000D+00  0.0000000000000D+00
   279  2.7800000000000D+00  0.0000000000000D+00  0.0000000000000D+00
   280  2.7900000000000D+00  0.0000000000000D+00  0.0000000000000D+00
   281  2.8000000000000D+00  0.0000000000000D+00  0.0000000000000D+00
   282  2.8100000000000D+00  0.0000000000000D+00  0.0000000000000D+00
   283  2.8200000000000D+00  0.0000000000000D+00  0.0000000000000D+00
   284  2.8300000000000D+00  0.0000000000000D+00  0.0000000000000D+00
   285  2.8400000000000D+00  0.0000000000000D+00  0.0000000000000D+00
   286  2.8500000000000D+00  0.0000000000000D+00  0.0000000000000D+00
   287  2.8600000000000D+00  0.0000000000000D+00  0.0000000000000D+00
   288  2.8700000000000D+00  0.0000000000000D+00  0.0000000000000D+00
   289  2.8800000000000D+00  0.0000000000000D+00  0.0000000000000D+00
   290  2.8900000000000D+00  0.0000000000000D+00  0.0000000000000D+00
   291  2.9000000000000D+00  0.0000000000000D+00  0.0000000000000D+00
   292  2.9100000000000D+00  0.0000000000000D+00  0.0000000000000D+00
   293  2.9200000000000D+00  0.0000000000000D+00  0.0000000000000D+00
   294  2.9300000000000D+00  0.0000000000000D+00  0.0000000000000D+00
   295  2.9400000000000D+00  0.0000000000000D+00  0.0000000000000D+00
   296  2.9500000000000D+00  0.0000000000000D+00  0.0000000000000D+00
   297  2.9600000000000D+00  0.0000000000000D+00  0.0000000000000D+00
   298  2.9700000000000D+00  0.0000000000000D+00  0.0000000000000D+00
   299  2.9800000000000D+00  0.0000000000000D+00  0.0000000000000D+00
   300  2.9900000000000D+00  0.0000000000000D+00  0.0000000000000D+00
   301  3.0000000000000D+00  0.0000000000000D+00  0.0000000000000D+00
   302  3.0100000000000D+00  0.0000000000000D+00  0.0000000000000D+00
   303  3.0200000000000D+00  0.0000000000000D+00  0.0000000000000D+00
   304  3.0300000000000D+00  0.0000000000000D+00  0.0000000000000D+00
   305  3.0400000000000D+00  0.0000000000000D+00  0.0000000000000D+00
   306  3.0500000000000D+00  0.0000000000000D+00  0.0000000000000D+00
   307  3.0600000000000D+00  0.0000000000000D+00  0.0000000000000D+00
   308  3.0700000000000D+00  0.0000000000000D+00  0.0000000000000D+00
   309  3.0800000000000D+00  0.0000000000000D+00  0.0000000000000D+00
   310  3.0900000000000D+00  0.0000000000000D+00  0.0000000000000D+00
   311  3.1000000000000D+00  0.0000000000000D+00  0.0000000000000D+00
   312  3.1100000000000D+00  0.0000000000000D+00  0.0000000000000D+00
   313  3.1200000000000D+00  0.0000000000000D+00  0.0000000000000D+00
   314  3.1300000000000D+00  0.0000000000000D+00  0.0000000000000D+00
   315  3.1400000000000D+00  0.0000000000000D+00  0.0000000000000D+00
   316  3.1500000000000D+00  0.0000000000000D+00  0.0000000000000D+00
   317  3.1600000000000D+00  0.0000000000000D+00  0.0000000000000D+00
   318  3.1700000000000D+00  0.0000000000000D+00  0.0000000000000D+00
   319  3.1800000000000D+00  0.0000000000000D+00  0.0000000000000D+00
   320  3.1900000000000D+00  0.0000000000000D+00  0.0000000000000D+00
   321  3.2000000000000D+00  0.0000000000000D+00  0.0000000000000D+00
   322  3.2100000000000D+00  0.0000000000000D+00  0.0000000000000D+00
   323  3.2200000000000D+00  0.0000000000000D+00  0.0000000000000D+00
   324  3.2300000000000D+00  0.0000000000000D+00  0.0000000000000D+00
   325  3.2400000000000D+00  0.0000000000000D+00  0.0000000000000D+00
   326  3.2500000000000D+00  0.0000000000000D+00  0.0000000000000D+00
   327  3.2600000000000D+00  0.0000000000000D+00  0.0000000000000D+00
   328  3.2700000000000D+00  0.0000000000000D+00  0.0000000000000D+00
   329  3.2800000000000D+00  0.0000000000000D+00  0.0000000000000D+00
   330  3.2900000000000D+00  0.0000000000000D+00  0.0000000000000D+00
   331  3.3000000000000D+00  0.0000000000000D+00  0.0000000000000D+00
   332  3.3100000000000D+00  0.0000000000000D+00  0.0000000000000D+00
   333  3.3200000000000D+00  0.0000000000000D+00  0.0000000000000D+00
   334  3.3300000000000D+00  0.0000000000000D+00  0.0000000000000D+00
   335  3.3400000000000D+00  0.0000000000000D+00  0.0000000000000D+00
   336  3.3500000000000D+00  0.0000000000000D+00  0.0000000000000D+00
   337  3.3600000000000D+00  0.0000000000000D+00  0.0000000000000D+00
   338  3.3700000000000D+00  0.0000000000000D+00  0.0000000000000D+00
   339  3.3800000000000D+00  0.0000000000000D+00  0.0000000000000D+00
   340  3.3900000000000D+00  0.0000000000000D+00  0.0000000000000D+00
   341  3.4000000000000D+00  0.0000000000000D+00  0.0000000000000D+00
   342  3.4100000000000D+00  0.0000000000000D+00  0.0000000000000D+00
   343  3.4200000000000D+00  0.0000000000000D+00  0.0000000000000D+00
   344  3.4300000000000D+00  0.0000000000000D+00  0.0000000000000D+00
   345  3.4400000000000D+00  0.0000000000000D+00  0.0000000000000D+00
   346  3.4500000000000D+00  0.0000000000000D+00  0.0000000000000D+00
   347  3.4600000000000D+00  0.0000000000000D+00  0.0000000000000D+00
   348  3.4700000000000D+00  0.0000000000000D+00  0.0000000000000D+00
   349  3.4800000000000D+00  0.0000000000000D+00  0.0000000000000D+00
   350  3.4900000000000D+00  0.0000000000000D+00  0.0000000000000D+00
   351  3.5000000000000D+00  0.0000000000000D+00  0.0000000000000D+00
   352  3.5100000000000D+00  0.0000000000000D+00  0.0000000000000D+00
   353  3.5200000000000D+00  0.0000000000000D+00  0.0000000000000D+00
   354  3.5300000000000D+00  0.0000000000000D+00  0.0000000000000D+00
   355  3.5400000000000D+00  0.0000000000000D+00  0.0000000000000D+00
   356  3.5500000000000D+00  0.0000000000000D+00  0.0000000000000D+00
   357  3.5600000000000D+00  0.0000000000000D+00  0.0000000000000D+00
   358  3.5700000000000D+00  0.0000000000000D+00  0.0000000000000D+00
   359  3.5800000000000D+00  0.0000000000000D+00  0.0000000000000D+00
   360  3.5900000000000D+00  0.0000000000000D+00  0.0000000000000D+00
   361  3.6000000000000D+00  0.0000000000000D+00  0.0000000000000D+00
   362  3.6100000000000D+00  0.0000000000000D+00  0.0000000000000D+00
   363  3.6200000000000D+00  0.0000000000000D+00  0.0000000000000D+00
   364  3.6300000000000D+00  0.0000000000000D+00  0.0000000000000D+00
   365  3.6400000000000D+00  0.0000000000000D+00  0.0000000000000D+00
   366  3.6500000000000D+00  0.0000000000000D+00  0.0000000000000D+00
   367  3.6600000000000D+00  0.0000000000000D+00  0.0000000000000D+00
   368  3.6700000000000D+00  0.0000000000000D+00  0.0000000000000D+00
   369  3.6800000000000D+00  0.0000000000000D+00  0.0000000000000D+00
   370  3.6900000000000D+00  0.0000000000000D+00  0.0000000000000D+00
   371  3.7000000000000D+00  0.0000000000000D+00  0.0000000000000D+00
   372  3.7100000000000D+00  0.0000000000000D+00  0.0000000000000D+00
   373  3.7200000000000D+00  0.0000000000000D+00  0.0000000000000D+00
   374  3.7300000000000D+00  0.0000000000000D+00  0.0000000000000D+00
   375  3.7400000000000D+00  0.0000000000000D+00  0.0000000000000D+00
   376  3.7500000000000D+00  0.0000000000000D+00  0.0000000000000D+00
   377  3.7600000000000D+00  0.0000000000000D+00  0.0000000000000D+00
   378  3.7700000000000D+00  0.0000000000000D+00  0.0000000000000D+00
   379  3.7800000000000D+00  0.0000000000000D+00  0.0000000000000D+00
   380  3.7900000000000D+00  0.0000000000000D+00  0.0000000000000D+00
   381  3.8000000000000D+00  0.0000000000000D+00  0.0000000000000D+00
   382  3.8100000000000D+00  0.0000000000000D+00  0.0000000000000D+00
   383  3.8200000000000D+00  0.0000000000000D+00  0.0000000000000D+00
   384  3.8300000000000D+00  0.0000000000000D+00  0.0000000000000D+00
   385  3.8400000000000D+00  0.0000000000000D+00  0.0000000000000D+00
   386  3.8500000000000D+00  0.0000000000000D+00  0.0000000000000D+00
   387  3.8600000000000D+00  0.0000000000000D+00  0.0000000000000D+00
   388  3.8700000000000D+00  0.0000000000000D+00  0.0000000000000D+00
   389  3.8800000000000D+00  0.0000000000000D+00  0.0000000000000D+00
   390  3.8900000000000D+00  0.0000000000000D+00  0.0000000000000D+00
   391  3.9000000000000D+00  0.0000000000000D+00  0.0000000000000D+00
   392  3.9100000000000D+00  0.0000000000000D+00  0.0000000000000D+00
   393  3.9200000000000D+00  0.0000000000000D+00  0.0000000000000D+00
   394  3.9300000000000D+00  0.0000000000000D+00  0.0000000000000D+00
   395  3.9400000000000D+00  0.0000000000000D+00  0.0000000000000D+00
   396  3.9500000000000D+00  0.0000000000000D+00  0.0000000000000D+00
   397  3.9600000000000D+00  0.0000000000000D+00  0.0000000000000D+00
   398  3.9700000000000D+00  0.0000000000000D+00  0.0000000000000D+00
   399  3.9800000000000D+00  0.0000000000000D+00  0.0000000000000D+00
   400  3.9900000000000D+00  0.0000000000000D+00  0.0000000000000D+00
   401  4.0000000000000D+00  0.0000000000000D+00  0.0000000000000D+00
   402  4.0100000000000D+00  0.0000000000000D+00  0.0000000000000D+00
   403  4.0200000000000D+00  0.0000000000000D+00  0.0000000000000D+00
   404  4.0300000000000D+00  0.0000000000000D+00  0.0000000000000D+00
   405  4.0400000000000D+00  0.0000000000000D+00  0.0000000000000D+00
   406  4.0500000000000D+00  0.0000000000000D+00  0.0000000000000D+00
   407  4.0600000000000D+00  0.0000000000000D+00  0.0000000000000D+00
   408  4.0700000000000D+00  0.0000000000000D+00  0.0000000000000D+00
   409  4.0800000000000D+00  0.0000000000000D+00  0.0000000000000D+00
   410  4.0900000000000D+00  0.0000000000000D+00  0.0000000000000D+00
   411  4.1000000000000D+00  0.0000000000000D+00  0.0000000000000D+00
   412  4.1100000000000D+00  0.0000000000000D+00  0.0000000000000D+00
   413  4.1200000000000D+00  0.0000000000000D+00  0.0000000000000D+00
   414  4.1300000000000D+00  0.0000000000000D+00  0.0000000000000D+00
   415  4.1400000000000D+00  0.0000000000000D+00  0.0000000000000D+00
   416  4.1500000000000D+00  0.0000000000000D+00  0.0000000000000D+00
   417  4.1600000000000D+00  0.0000000000000D+00  0.0000000000000D+00
   418  4.1700000000000D+00  0.0000000000000D+00  0.0000000000000D+00
   419  4.1800000000000D+00  0.0000000000000D+00  0.0000000000000D+00
   420  4.1900000000000D+00  0.0000000000000D+00  0.0000000000000D+00
   421  4.2000000000000D+00  0.0000000000000D+00  0.0000000000000D+00
   422  4.2100000000000D+00  0.0000000000000D+00  0.0000000000000D+00