Cu    ONCVPSP-3.3.0  r_core=   1.20324   1.30802   1.60208
     29.0000     19.0000      220117    zatom,zion,pspd
     8      11   2     4   600     0    pspcod,pspxc,lmax,lloc,mmax,r2well
  5.99000000  0.00000000  0.00000000    rchrg fchrg qchrg
     2     2     2     0     0    nproj
     1     1           extension_switch
   0                         6.1472201241616D+00 -4.8650869248470D-01
     1  0.0000000000000D+00 -4.8399115826214D-09 -1.4991142660570D-08
     2  1.0000000000000D-02  1.1279901880779D-01  3.5122693312043D-02
     3  2.0000000000000D-02  2.2507432439674D-01  6.9870017482142D-02
     4  3.0000000000000D-02  3.3630659229786D-01  1.0387495183406D-01
     5  4.0000000000000D-02  4.4598521002282D-01  1.3678698929874D-01
     6  5.0000000000000D-02  5.5361247053147D-01  1.6827993886127D-01
     7  6.0000000000000D-02  6.5870757421607D-01  1.9805919376763D-01
     8  7.0000000000000D-02  7.6081038140198D-01  2.2586830547509D-01
     9  8.0000000000000D-02  8.5948486220501D-01  2.5149471832118D-01
    10  9.0000000000000D-02  9.5432219644460D-01  2.7477453802159D-01
    11  1.0000000000000D-01  1.0449434830699D+00  2.9559622800324D-01
    12  1.1000000000000D-01  1.1310020260719D+00  3.1390315079209D-01
    13  1.2000000000000D-01  1.2121851719743D+00  3.2969489671418D-01
    14  1.3000000000000D-01  1.2882156825495D+00  3.4302736850016D-01
    15  1.4000000000000D-01  1.3588526352183D+00  3.5401161744823D-01
    16  1.5000000000000D-01  1.4238918524803D+00  3.6281145402074D-01
    17  1.6000000000000D-01  1.4831658705010D+00  3.6963988254332D-01
    18  1.7000000000000D-01  1.5365434654704D+00  3.7475443546836D-01
    19  1.8000000000000D-01  1.5839287643720D+00  3.7845150690087D-01
    20  1.9000000000000D-01  1.6252599741951D+00  3.8105980724166D-01
    21  2.0000000000000D-01  1.6605077702268D+00  3.8293308039703D-01
    22  2.1000000000000D-01  1.6896733897541D+00  3.8444224160786D-01
    23  2.2000000000000D-01  1.7127864821507D+00  3.8596710719587D-01
    24  2.3000000000000D-01  1.7299027698454D+00  3.8788789711351D-01
    25  2.4000000000000D-01  1.7411015769824D+00  3.9057669689410D-01
    26  2.5000000000000D-01  1.7464832836496D+00  3.9438906729152D-01
    27  2.6000000000000D-01  1.7461667633486D+00  3.9965598751629D-01
    28  2.7000000000000D-01  1.7402868599175D+00  4.0667631154975D-01
    29  2.8000000000000D-01  1.7289919574302D+00  4.1570990666540D-01
    30  2.9000000000000D-01  1.7124416927425D+00  4.2697162920744D-01
    31  3.0000000000000D-01  1.6908048554262D+00  4.4062627515195D-01
    32  3.1000000000000D-01  1.6642575139331D+00  4.5678462236222D-01
    33  3.2000000000000D-01  1.6329814000957D+00  4.7550065817001D-01
    34  3.3000000000000D-01  1.5971625766481D+00  4.9677006045173D-01
    35  3.4000000000000D-01  1.5569904045032D+00  5.2052997325656D-01
    36  3.5000000000000D-01  1.5126568182316D+00  5.4666008985411D-01
    37  3.6000000000000D-01  1.4643559097331D+00  5.7498502739823D-01
    38  3.7000000000000D-01  1.4122838116699D+00  6.0527794886971D-01
    39  3.8000000000000D-01  1.3566388640249D+00  6.3726536017193D-01
    40  3.9000000000000D-01  1.2976220393477D+00  6.7063298381992D-01
    41  4.0000000000000D-01  1.2354375950412D+00  7.0503258616037D-01
    42  4.1000000000000D-01  1.1702939145722D+00  7.4008961303231D-01
    43  4.2000000000000D-01  1.1024044939333D+00  7.7541146972070D-01
    44  4.3000000000000D-01  1.0319890251585D+00  8.1059626540315D-01
    45  4.4000000000000D-01  9.5927452531705D-01  8.4524183041003D-01
    46  4.5000000000000D-01  8.8449645727281D-01  8.7895480680041D-01
    47  4.6000000000000D-01  8.0789978764596D-01  9.1135960920628D-01
    48  4.7000000000000D-01  7.2973992790228D-01  9.4210705373064D-01
    49  4.8000000000000D-01  6.5028350630805D-01  9.7088245792665D-01
    50  4.9000000000000D-01  5.6980892161338D-01  9.9741302446456D-01
    51  5.0000000000000D-01  4.8860663370378D-01  1.0214743348496D+00
    52  5.1000000000000D-01  4.0697915200463D-01  1.0428957972249D+00
    53  5.2000000000000D-01  3.2524068903331D-01  1.0615649135549D+00
    54  5.3000000000000D-01  2.4371645403068D-01  1.0774302559131D+00
    55  5.4000000000000D-01  1.6274156990369D-01  1.0905030686625D+00
    56  5.5000000000000D-01  8.2659605623200D-02  1.1008574425591D+00
    57  5.6000000000000D-01  3.8207255253303D-03  1.1086290375097D+00
    58  5.7000000000000D-01 -7.3420533524527D-02  1.1140123623007D+00
    59  5.8000000000000D-01 -1.4870783662418D-01  1.1172566514495D+00
    60  5.9000000000000D-01 -2.2168594722892D-01  1.1186604105843D+00
    61  6.0000000000000D-01 -2.9200390680492D-01  1.1185647319999D+00
    62  6.1000000000000D-01 -3.5931845088265D-01  1.1173455103216D+00
    63  6.2000000000000D-01 -4.2329760722915D-01  1.1154047141595D+00
    64  6.3000000000000D-01 -4.8362441544749D-01  1.1131608925314D+00
    65  6.4000000000000D-01 -5.4000070207885D-01  1.1110391141187D+00
    66  6.5000000000000D-01 -5.9215084131585D-01  1.1094605528264D+00
    67  6.6000000000000D-01 -6.3982542891468D-01  1.1088319440128D+00
    68  6.7000000000000D-01 -6.8280479583804D-01  1.1095351420730D+00
    69  6.8000000000000D-01 -7.2090228866270D-01  1.1119170114867D+00
    70  6.9000000000000D-01 -7.5396724585469D-01  1.1162798799015D+00
    71  7.0000000000000D-01 -7.8188760261304D-01  1.1228727734097D+00
    72  7.1000000000000D-01 -8.0459206210897D-01  1.1318836408894D+00
    73  7.2000000000000D-01 -8.2205177748682D-01  1.1434327564170D+00
    74  7.3000000000000D-01 -8.3428149683613D-01  1.1575674666581D+00
    75  7.4000000000000D-01 -8.4134013238586D-01  1.1742584241095D+00
    76  7.5000000000000D-01 -8.4333072516509D-01  1.1933974178365D+00
    77  7.6000000000000D-01 -8.4039978724937D-01  1.2147968811443D+00
    78  7.7000000000000D-01 -8.3273601514270D-01  1.2381911214287D+00
    79  7.8000000000000D-01 -8.2056837965808D-01  1.2632392818004D+00
    80  7.9000000000000D-01 -8.0416360961954D-01  1.2895300076993D+00
    81  8.0000000000000D-01 -7.8382309855416D-01  1.3165877554176D+00
    82  8.1000000000000D-01 -7.5987927503614D-01  1.3438806439653D+00
    83  8.2000000000000D-01 -7.3269148824301D-01  1.3708297178108D+00
    84  8.3000000000000D-01 -7.0264147035318D-01  1.3968194564299D+00
    85  8.4000000000000D-01 -6.7012844643676D-01  1.4212093379991D+00
    86  8.5000000000000D-01 -6.3556397026617D-01  1.4433462395952D+00
    87  8.6000000000000D-01 -5.9936657082392D-01  1.4625774354887D+00
    88  8.7000000000000D-01 -5.6195629906189D-01  1.4782639390193D+00
    89  8.8000000000000D-01 -5.2374926755042D-01  1.4897939225034D+00
    90  8.9000000000000D-01 -4.8515227696105D-01  1.4965959439423D+00
    91  9.0000000000000D-01 -4.4655762280411D-01  1.4981517091435D+00
    92  9.1000000000000D-01 -4.0833817347819D-01  1.4940081033078D+00
    93  9.2000000000000D-01 -3.7084280650831D-01  1.4837882371133D+00
    94  9.3000000000000D-01 -3.3439228391499D-01  1.4672012686780D+00
    95  9.4000000000000D-01 -2.9927564006760D-01  1.4440507842286D+00
    96  9.5000000000000D-01 -2.6574714626495D-01  1.4142415464394D+00
    97  9.6000000000000D-01 -2.3402390582232D-01  1.3777844497595D+00
    98  9.7000000000000D-01 -2.0428412184148D-01  1.3347995559568D+00
    99  9.8000000000000D-01 -1.7666606718607D-01  1.2855171203254D+00
   100  9.9000000000000D-01 -1.5126777307365D-01  1.2302765577448D+00
   101  1.0000000000000D+00 -1.2814743900454D-01  1.1695233383916D+00
   102  1.0100000000000D+00 -1.0732455268849D-01  1.1038038447579D+00
   103  1.0200000000000D+00 -8.8781695121183D-02  1.0337582619576D+00
   104  1.0300000000000D+00 -7.2466992508758D-02  9.6011161357016D-01
   105  1.0400000000000D+00 -5.8297164031721D-02  8.8366309338528D-01
   106  1.0500000000000D+00 -4.6161102552423D-02  8.0527387915848D-01
   107  1.0600000000000D+00 -3.5923915290788D-02  7.2585364484460D-01
   108  1.0700000000000D+00 -2.7431341302870D-02  6.4634601854780D-01
   109  1.0800000000000D+00 -2.0514455689607D-02  5.6771325434229D-01
   110  1.0900000000000D+00 -1.4994564156018D-02  4.9092040526620D-01
   111  1.1000000000000D+00 -1.0688187709408D-02  4.1691929650104D-01
   112  1.1100000000000D+00 -7.4120348204923D-03  3.4663260533444D-01
   113  1.1200000000000D+00 -4.9878583499601D-03  2.8093835476928D-01
   114  1.1300000000000D+00 -3.2470963703778D-03  2.2065512227737D-01
   115  1.1400000000000D+00 -2.0352007932870D-03  1.6652825095516D-01
   116  1.1500000000000D+00 -1.2155610759423D-03  1.1921734030185D-01
   117  1.1600000000000D+00 -6.7294055675491D-04  7.9285263017553D-02
   118  1.1700000000000D+00 -3.1635873211658D-04  4.7206883742512D-02
   119  1.1800000000000D+00 -8.2330970526669D-05  2.3168437924636D-02
   120  1.1900000000000D+00  7.0245172066036D-05  7.8273501891677D-03
   121  1.2000000000000D+00  1.4725555066710D-04  1.1397747898891D-03
   122  1.2100000000000D+00  8.3095024229895D-05 -2.5037403825008D-04
   123  1.2200000000000D+00 -1.0520592423554D-05  5.6803558850423D-05
   124  1.2300000000000D+00 -6.4865599859059D-06  4.3353639390517D-05
   125  1.2400000000000D+00  3.6489286974614D-06 -1.6927768050280D-05
   126  1.2500000000000D+00 -2.6197255312964D-07 -5.6317223768579D-07
   127  1.2600000000000D+00 -1.6081965313855D-07 -3.4572004906588D-07
   128  1.2700000000000D+00  0.0000000000000D+00  0.0000000000000D+00
   129  1.2800000000000D+00  0.0000000000000D+00  0.0000000000000D+00
   130  1.2900000000000D+00  0.0000000000000D+00  0.0000000000000D+00
   131  1.3000000000000D+00  0.0000000000000D+00  0.0000000000000D+00
   132  1.3100000000000D+00  0.0000000000000D+00  0.0000000000000D+00
   133  1.3200000000000D+00  0.0000000000000D+00  0.0000000000000D+00
   134  1.3300000000000D+00  0.0000000000000D+00  0.0000000000000D+00
   135  1.3400000000000D+00  0.0000000000000D+00  0.0000000000000D+00
   136  1.3500000000000D+00  0.0000000000000D+00  0.0000000000000D+00
   137  1.3600000000000D+00  0.0000000000000D+00  0.0000000000000D+00
   138  1.3700000000000D+00  0.0000000000000D+00  0.0000000000000D+00
   139  1.3800000000000D+00  0.0000000000000D+00  0.0000000000000D+00
   140  1.3900000000000D+00  0.0000000000000D+00  0.0000000000000D+00
   141  1.4000000000000D+00  0.0000000000000D+00  0.0000000000000D+00
   142  1.4100000000000D+00  0.0000000000000D+00  0.0000000000000D+00
   143  1.4200000000000D+00  0.0000000000000D+00  0.0000000000000D+00
   144  1.4300000000000D+00  0.0000000000000D+00  0.0000000000000D+00
   145  1.4400000000000D+00  0.0000000000000D+00  0.0000000000000D+00
   146  1.4500000000000D+00  0.0000000000000D+00  0.0000000000000D+00
   147  1.4600000000000D+00  0.0000000000000D+00  0.0000000000000D+00
   148  1.4700000000000D+00  0.0000000000000D+00  0.0000000000000D+00
   149  1.4800000000000D+00  0.0000000000000D+00  0.0000000000000D+00
   150  1.4900000000000D+00  0.0000000000000D+00  0.0000000000000D+00
   151  1.5000000000000D+00  0.0000000000000D+00  0.0000000000000D+00
   152  1.5100000000000D+00  0.0000000000000D+00  0.0000000000000D+00
   153  1.5200000000000D+00  0.0000000000000D+00  0.0000000000000D+00
   154  1.5300000000000D+00  0.0000000000000D+00  0.0000000000000D+00
   155  1.5400000000000D+00  0.0000000000000D+00  0.0000000000000D+00
   156  1.5500000000000D+00  0.0000000000000D+00  0.0000000000000D+00
   157  1.5600000000000D+00  0.0000000000000D+00  0.0000000000000D+00
   158  1.5700000000000D+00  0.0000000000000D+00  0.0000000000000D+00
   159  1.5800000000000D+00  0.0000000000000D+00  0.0000000000000D+00
   160  1.5900000000000D+00  0.0000000000000D+00  0.0000000000000D+00
   161  1.6000000000000D+00  0.0000000000000D+00  0.0000000000000D+00
   162  1.6100000000000D+00  0.0000000000000D+00  0.0000000000000D+00
   163  1.6200000000000D+00  0.0000000000000D+00  0.0000000000000D+00
   164  1.6300000000000D+00  0.0000000000000D+00  0.0000000000000D+00
   165  1.6400000000000D+00  0.0000000000000D+00  0.0000000000000D+00
   166  1.6500000000000D+00  0.0000000000000D+00  0.0000000000000D+00
   167  1.6600000000000D+00  0.0000000000000D+00  0.0000000000000D+00
   168  1.6700000000000D+00  0.0000000000000D+00  0.0000000000000D+00
   169  1.6800000000000D+00  0.0000000000000D+00  0.0000000000000D+00
   170  1.6900000000000D+00  0.0000000000000D+00  0.0000000000000D+00
   171  1.7000000000000D+00  0.0000000000000D+00  0.0000000000000D+00
   172  1.7100000000000D+00  0.0000000000000D+00  0.0000000000000D+00
   173  1.7200000000000D+00  0.0000000000000D+00  0.0000000000000D+00
   174  1.7300000000000D+00  0.0000000000000D+00  0.0000000000000D+00
   175  1.7400000000000D+00  0.0000000000000D+00  0.0000000000000D+00
   176  1.7500000000000D+00  0.0000000000000D+00  0.0000000000000D+00
   177  1.7600000000000D+00  0.0000000000000D+00  0.0000000000000D+00
   178  1.7700000000000D+00  0.0000000000000D+00  0.0000000000000D+00
   179  1.7800000000000D+00  0.0000000000000D+00  0.0000000000000D+00
   180  1.7900000000000D+00  0.0000000000000D+00  0.0000000000000D+00
   181  1.8000000000000D+00  0.0000000000000D+00  0.0000000000000D+00
   182  1.8100000000000D+00  0.0000000000000D+00  0.0000000000000D+00
   183  1.8200000000000D+00  0.0000000000000D+00  0.0000000000000D+00
   184  1.8300000000000D+00  0.0000000000000D+00  0.0000000000000D+00
   185  1.8400000000000D+00  0.0000000000000D+00  0.0000000000000D+00
   186  1.8500000000000D+00  0.0000000000000D+00  0.0000000000000D+00
   187  1.8600000000000D+00  0.0000000000000D+00  0.0000000000000D+00
   188  1.8700000000000D+00  0.0000000000000D+00  0.0000000000000D+00
   189  1.8800000000000D+00  0.0000000000000D+00  0.0000000000000D+00
   190  1.8900000000000D+00  0.0000000000000D+00  0.0000000000000D+00
   191  1.9000000000000D+00  0.0000000000000D+00  0.0000000000000D+00
   192  1.9100000000000D+00  0.0000000000000D+00  0.0000000000000D+00
   193  1.9200000000000D+00  0.0000000000000D+00  0.0000000000000D+00
   194  1.9300000000000D+00  0.0000000000000D+00  0.0000000000000D+00
   195  1.9400000000000D+00  0.0000000000000D+00  0.0000000000000D+00
   196  1.9500000000000D+00  0.0000000000000D+00  0.0000000000000D+00
   197  1.9600000000000D+00  0.0000000000000D+00  0.0000000000000D+00
   198  1.9700000000000D+00  0.0000000000000D+00  0.0000000000000D+00
   199  1.9800000000000D+00  0.0000000000000D+00  0.0000000000000D+00
   200  1.9900000000000D+00  0.0000000000000D+00  0.0000000000000D+00
   201  2.0000000000000D+00  0.0000000000000D+00  0.0000000000000D+00
   202  2.0100000000000D+00  0.0000000000000D+00  0.0000000000000D+00
   203  2.0200000000000D+00  0.0000000000000D+00  0.0000000000000D+00
   204  2.0300000000000D+00  0.0000000000000D+00  0.0000000000000D+00
   205  2.0400000000000D+00  0.0000000000000D+00  0.0000000000000D+00
   206  2.0500000000000D+00  0.0000000000000D+00  0.0000000000000D+00
   207  2.0600000000000D+00  0.0000000000000D+00  0.0000000000000D+00
   208  2.0700000000000D+00  0.0000000000000D+00  0.0000000000000D+00
   209  2.0800000000000D+00  0.0000000000000D+00  0.0000000000000D+00
   210  2.0900000000000D+00  0.0000000000000D+00  0.0000000000000D+00
   211  2.1000000000000D+00  0.0000000000000D+00  0.0000000000000D+00
   212  2.1100000000000D+00  0.0000000000000D+00  0.0000000000000D+00
   213  2.1200000000000D+00  0.0000000000000D+00  0.0000000000000D+00
   214  2.1300000000000D+00  0.0000000000000D+00  0.0000000000000D+00
   215  2.1400000000000D+00  0.0000000000000D+00  0.0000000000000D+00
   216  2.1500000000000D+00  0.0000000000000D+00  0.0000000000000D+00
   217  2.1600000000000D+00  0.0000000000000D+00  0.0000000000000D+00
   218  2.1700000000000D+00  0.0000000000000D+00  0.0000000000000D+00
   219  2.1800000000000D+00  0.0000000000000D+00  0.0000000000000D+00
   220  2.1900000000000D+00  0.0000000000000D+00  0.0000000000000D+00
   221  2.2000000000000D+00  0.0000000000000D+00  0.0000000000000D+00
   222  2.2100000000000D+00  0.0000000000000D+00  0.0000000000000D+00
   223  2.2200000000000D+00  0.0000000000000D+00  0.0000000000000D+00
   224  2.2300000000000D+00  0.0000000000000D+00  0.0000000000000D+00
   225  2.2400000000000D+00  0.0000000000000D+00  0.0000000000000D+00
   226  2.2500000000000D+00  0.0000000000000D+00  0.0000000000000D+00
   227  2.2600000000000D+00  0.0000000000000D+00  0.0000000000000D+00
   228  2.2700000000000D+00  0.0000000000000D+00  0.0000000000000D+00
   229  2.2800000000000D+00  0.0000000000000D+00  0.0000000000000D+00
   230  2.2900000000000D+00  0.0000000000000D+00  0.0000000000000D+00
   231  2.3000000000000D+00  0.0000000000000D+00  0.0000000000000D+00
   232  2.3100000000000D+00  0.0000000000000D+00  0.0000000000000D+00
   233  2.3200000000000D+00  0.0000000000000D+00  0.0000000000000D+00
   234  2.3300000000000D+00  0.0000000000000D+00  0.0000000000000D+00
   235  2.3400000000000D+00  0.0000000000000D+00  0.0000000000000D+00
   236  2.3500000000000D+00  0.0000000000000D+00  0.0000000000000D+00
   237  2.3600000000000D+00  0.0000000000000D+00  0.0000000000000D+00
   238  2.3700000000000D+00  0.0000000000000D+00  0.0000000000000D+00
   239  2.3800000000000D+00  0.0000000000000D+00  0.0000000000000D+00
   240  2.3900000000000D+00  0.0000000000000D+00  0.0000000000000D+00
   241  2.4000000000000D+00  0.0000000000000D+00  0.0000000000000D+00
   242  2.4100000000000D+00  0.0000000000000D+00  0.0000000000000D+00
   243  2.4200000000000D+00  0.0000000000000D+00  0.0000000000000D+00
   244  2.4300000000000D+00  0.0000000000000D+00  0.0000000000000D+00
   245  2.4400000000000D+00  0.0000000000000D+00  0.0000000000000D+00
   246  2.4500000000000D+00  0.0000000000000D+00  0.0000000000000D+00
   247  2.4600000000000D+00  0.0000000000000D+00  0.0000000000000D+00
   248  2.4700000000000D+00  0.0000000000000D+00  0.0000000000000D+00
   249  2.4800000000000D+00  0.0000000000000D+00  0.0000000000000D+00
   250  2.4900000000000D+00  0.0000000000000D+00  0.0000000000000D+00
   251  2.5000000000000D+00  0.0000000000000D+00  0.0000000000000D+00
   252  2.5100000000000D+00  0.0000000000000D+00  0.0000000000000D+00
   253  2.5200000000000D+00  0.0000000000000D+00  0.0000000000000D+00
   254  2.5300000000000D+00  0.0000000000000D+00  0.0000000000000D+00
   255  2.5400000000000D+00  0.0000000000000D+00  0.0000000000000D+00
   256  2.5500000000000D+00  0.0000000000000D+00  0.0000000000000D+00
   257  2.5600000000000D+00  0.0000000000000D+00  0.0000000000000D+00
   258  2.5700000000000D+00  0.0000000000000D+00  0.0000000000000D+00
   259  2.5800000000000D+00  0.0000000000000D+00  0.0000000000000D+00
   260  2.5900000000000D+00  0.0000000000000D+00  0.0000000000000D+00
   261  2.6000000000000D+00  0.0000000000000D+00  0.0000000000000D+00
   262  2.6100000000000D+00  0.0000000000000D+00  0.0000000000000D+00
   263  2.6200000000000D+00  0.0000000000000D+00  0.0000000000000D+00
   264  2.6300000000000D+00  0.0000000000000D+00  0.0000000000000D+00
   265  2.6400000000000D+00  0.0000000000000D+00  0.0000000000000D+00
   266  2.6500000000000D+00  0.0000000000000D+00  0.0000000000000D+00
   267  2.6600000000000D+00  0.0000000000000D+00  0.0000000000000D+00
   268  2.6700000000000D+00  0.0000000000000D+00  0.0000000000000D+00
   269  2.6800000000000D+00  0.0000000000000D+00  0.0000000000000D+00
   270  2.6900000000000D+00  0.0000000000000D+00  0.0000000000000D+00
   271  2.7000000000000D+00  0.0000000000000D+00  0.0000000000000D+00
   272  2.7100000000000D+00  0.0000000000000D+00  0.0000000000000D+00
   273  2.7200000000000D+00  0.0000000000000D+00  0.0000000000000D+00
   274  2.7300000000000D+00  0.0000000000000D+00  0.0000000000000D+00
   275  2.7400000000000D+00  0.0000000000000D+00  0.0000000000000D+00
   276  2.7500000000000D+00  0.0000000000000D+00  0.0000000000000D+00
   277  2.7600000000000D+00  0.0000000000000D+00  0.0000000000000D+00
   278  2.7700000000000D+00  0.0000000000000D+00  0.0000000000000D+00
   279  2.7800000000000D+00  0.0000000000000D+00  0.0000000000000D+00
   280  2.7900000000000D+00  0.0000000000000D+00  0.0000000000000D+00
   281  2.8000000000000D+00  0.0000000000000D+00  0.0000000000000D+00
   282  2.8100000000000D+00  0.0000000000000D+00  0.0000000000000D+00
   283  2.8200000000000D+00  0.0000000000000D+00  0.0000000000000D+00
   284  2.8300000000000D+00  0.0000000000000D+00  0.0000000000000D+00
   285  2.8400000000000D+00  0.0000000000000D+00  0.0000000000000D+00
   286  2.8500000000000D+00  0.0000000000000D+00  0.0000000000000D+00
   287  2.8600000000000D+00  0.0000000000000D+00  0.0000000000000D+00
   288  2.8700000000000D+00  0.0000000000000D+00  0.0000000000000D+00
   289  2.8800000000000D+00  0.0000000000000D+00  0.0000000000000D+00
   290  2.8900000000000D+00  0.0000000000000D+00  0.0000000000000D+00
   291  2.9000000000000D+00  0.0000000000000D+00  0.0000000000000D+00
   292  2.9100000000000D+00  0.0000000000000D+00  0.0000000000000D+00
   293  2.9200000000000D+00  0.0000000000000D+00  0.0000000000000D+00
   294  2.9300000000000D+00  0.0000000000000D+00  0.0000000000000D+00
   295  2.9400000000000D+00  0.0000000000000D+00  0.0000000000000D+00
   296  2.9500000000000D+00  0.0000000000000D+00  0.0000000000000D+00
   297  2.9600000000000D+00  0.0000000000000D+00  0.0000000000000D+00
   298  2.9700000000000D+00  0.0000000000000D+00  0.0000000000000D+00
   299  2.9800000000000D+00  0.0000000000000D+00  0.0000000000000D+00
   300  2.9900000000000D+00  0.0000000000000D+00  0.0000000000000D+00
   301  3.0000000000000D+00  0.0000000000000D+00  0.0000000000000D+00
   302  3.0100000000000D+00  0.0000000000000D+00  0.0000000000000D+00
   303  3.0200000000000D+00  0.0000000000000D+00  0.0000000000000D+00
   304  3.0300000000000D+00  0.0000000000000D+00  0.0000000000000D+00
   305  3.0400000000000D+00  0.0000000000000D+00  0.0000000000000D+00
   306  3.0500000000000D+00  0.0000000000000D+00  0.0000000000000D+00
   307  3.0600000000000D+00  0.0000000000000D+00  0.0000000000000D+00
   308  3.0700000000000D+00  0.0000000000000D+00  0.0000000000000D+00
   309  3.0800000000000D+00  0.0000000000000D+00  0.0000000000000D+00
   310  3.0900000000000D+00  0.0000000000000D+00  0.0000000000000D+00
   311  3.1000000000000D+00  0.0000000000000D+00  0.0000000000000D+00
   312  3.1100000000000D+00  0.0000000000000D+00  0.0000000000000D+00
   313  3.1200000000000D+00  0.0000000000000D+00  0.0000000000000D+00
   314  3.1300000000000D+00  0.0000000000000D+00  0.0000000000000D+00
   315  3.1400000000000D+00  0.0000000000000D+00  0.0000000000000D+00
   316  3.1500000000000D+00  0.0000000000000D+00  0.0000000000000D+00
   317  3.1600000000000D+00  0.0000000000000D+00  0.0000000000000D+00
   318  3.1700000000000D+00  0.0000000000000D+00  0.0000000000000D+00
   319  3.1800000000000D+00  0.0000000000000D+00  0.0000000000000D+00
   320  3.1900000000000D+00  0.0000000000000D+00  0.0000000000000D+00
   321  3.2000000000000D+00  0.0000000000000D+00  0.0000000000000D+00
   322  3.2100000000000D+00  0.0000000000000D+00  0.0000000000000D+00
   323  3.2200000000000D+00  0.0000000000000D+00  0.0000000000000D+00
   324  3.2300000000000D+00  0.0000000000000D+00  0.0000000000000D+00
   325  3.2400000000000D+00  0.0000000000000D+00  0.0000000000000D+00
   326  3.2500000000000D+00  0.0000000000000D+00  0.0000000000000D+00
   327  3.2600000000000D+00  0.0000000000000D+00  0.0000000000000D+00
   328  3.2700000000000D+00  0.0000000000000D+00  0.0000000000000D+00
   329  3.2800000000000D+00  0.0000000000000D+00  0.0000000000000D+00
   330  3.2900000000000D+00  0.0000000000000D+00  0.0000000000000D+00
   331  3.3000000000000D+00  0.0000000000000D+00  0.0000000000000D+00
   332  3.3100000000000D+00  0.0000000000000D+00  0.0000000000000D+00
   333  3.3200000000000D+00  0.0000000000000D+00  0.0000000000000D+00
   334  3.3300000000000D+00  0.0000000000000D+00  0.0000000000000D+00
   335  3.3400000000000D+00  0.0000000000000D+00  0.0000000000000D+00
   336  3.3500000000000D+00  0.0000000000000D+00  0.0000000000000D+00
   337  3.3600000000000D+00  0.0000000000000D+00  0.0000000000000D+00
   338  3.3700000000000D+00  0.0000000000000D+00  0.0000000000000D+00
   339  3.3800000000000D+00  0.0000000000000D+00  0.0000000000000D+00
   340  3.3900000000000D+00  0.0000000000000D+00  0.0000000000000D+00
   341  3.4000000000000D+00  0.0000000000000D+00  0.0000000000000D+00
   342  3.4100000000000D+00  0.0000000000000D+00  0.0000000000000D+00
   343  3.4200000000000D+00  0.0000000000000D+00  0.0000000000000D+00
   344  3.4300000000000D+00  0.0000000000000D+00  0.0000000000000D+00
   345  3.4400000000000D+00  0.0000000000000D+00  0.0000000000000D+00
   346  3.4500000000000D+00  0.0000000000000D+00  0.0000000000000D+00
   347  3.4600000000000D+00  0.0000000000000D+00  0.0000000000000D+00
   348  3.4700000000000D+00  0.0000000000000D+00  0.0000000000000D+00
   349  3.4800000000000D+00  0.0000000000000D+00  0.0000000000000D+00
   350  3.4900000000000D+00  0.0000000000000D+00  0.0000000000000D+00
   351  3.5000000000000D+00  0.0000000000000D+00  0.0000000000000D+00
   352  3.5100000000000D+00  0.0000000000000D+00  0.0000000000000D+00
   353  3.5200000000000D+00  0.0000000000000D+00  0.0000000000000D+00
   354  3.5300000000000D+00  0.0000000000000D+00  0.0000000000000D+00
   355  3.5400000000000D+00  0.0000000000000D+00  0.0000000000000D+00
   356  3.5500000000000D+00  0.0000000000000D+00  0.0000000000000D+00
   357  3.5600000000000D+00  0.0000000000000D+00  0.0000000000000D+00
   358  3.5700000000000D+00  0.0000000000000D+00  0.0000000000000D+00
   359  3.5800000000000D+00  0.0000000000000D+00  0.0000000000000D+00
   360  3.5900000000000D+00  0.0000000000000D+00  0.0000000000000D+00
   361  3.6000000000000D+00  0.0000000000000D+00  0.0000000000000D+00
   362  3.6100000000000D+00  0.0000000000000D+00  0.0000000000000D+00
   363  3.6200000000000D+00  0.0000000000000D+00  0.0000000000000D+00
   364  3.6300000000000D+00  0.0000000000000D+00  0.0000000000000D+00
   365  3.6400000000000D+00  0.0000000000000D+00  0.0000000000000D+00
   366  3.6500000000000D+00  0.0000000000000D+00  0.0000000000000D+00
   367  3.6600000000000D+00  0.0000000000000D+00  0.0000000000000D+00
   368  3.6700000000000D+00  0.0000000000000D+00  0.0000000000000D+00
   369  3.6800000000000D+00  0.0000000000000D+00  0.0000000000000D+00
   370  3.6900000000000D+00  0.0000000000000D+00  0.0000000000000D+00
   371  3.7000000000000D+00  0.0000000000000D+00  0.0000000000000D+00
   372  3.7100000000000D+00  0.0000000000000D+00  0.0000000000000D+00
   373  3.7200000000000D+00  0.0000000000000D+00  0.0000000000000D+00
   374  3.7300000000000D+00  0.0000000000000D+00  0.0000000000000D+00
   375  3.7400000000000D+00  0.0000000000000D+00  0.0000000000000D+00
   376  3.7500000000000D+00  0.0000000000000D+00  0.0000000000000D+00
   377  3.7600000000000D+00  0.0000000000000D+00  0.0000000000000D+00
   378  3.7700000000000D+00  0.0000000000000D+00  0.0000000000000D+00
   379  3.7800000000000D+00  0.0000000000000D+00  0.0000000000000D+00
   380  3.7900000000000D+00  0.0000000000000D+00  0.0000000000000D+00
   381  3.8000000000000D+00  0.0000000000000D+00  0.0000000000000D+00
   382  3.8100000000000D+00  0.0000000000000D+00  0.0000000000000D+00
   383  3.8200000000000D+00  0.0000000000000D+00  0.0000000000000D+00
   384  3.8300000000000D+00  0.0000000000000D+00  0.0000000000000D+00
   385  3.8400000000000D+00  0.0000000000000D+00  0.0000000000000D+00
   386  3.8500000000000D+00  0.0000000000000D+00  0.0000000000000D+00
   387  3.8600000000000D+00  0.0000000000000D+00  0.0000000000000D+00
   388  3.8700000000000D+00  0.0000000000000D+00  0.0000000000000D+00
   389  3.8800000000000D+00  0.0000000000000D+00  0.0000000000000D+00
   390  3.8900000000000D+00  0.0000000000000D+00  0.0000000000000D+00
   391  3.9000000000000D+00  0.0000000000000D+00  0.0000000000000D+00
   392  3.9100000000000D+00  0.0000000000000D+00  0.0000000000000D+00
   393  3.9200000000000D+00  0.0000000000000D+00  0.0000000000000D+00
   394  3.9300000000000D+00  0.0000000000000D+00  0.0000000000000D+00
   395  3.9400000000000D+00  0.0000000000000D+00  0.0000000000000D+00
   396  3.9500000000000D+00  0.0000000000000D+00  0.0000000000000D+00
   397  3.9600000000000D+00  0.0000000000000D+00  0.0000000000000D+00
   398  3.9700000000000D+00  0.0000000000000D+00  0.0000000000000D+00
   399  3.9800000000000D+00  0.0000000000000D+00  0.0000000000000D+00
   400  3.9900000000000D+00  0.0000000000000D+00  0.0000000000000D+00
   401  4.0000000000000D+00  0.0000000000000D+00  0.0000000000000D+00
   402  4.0100000000000D+00  0.0000000000000D+00  0.0000000000000D+00
   403  4.0200000000000D+00  0.0000000000000D+00  0.0000000000000D+00
   404  4.0300000000000D+00  0.0000000000000D+00  0.0000000000000D+00
   405  4.0400000000000D+00  0.0000000000000D+00  0.0000000000000D+00
   406  4.0500000000000D+00  0.0000000000000D+00  0.0000000000000D+00
   407  4.0600000000000D+00  0.0000000000000D+00  0.0000000000000D+00
   408  4.0700000000000D+00  0.0000000000000D+00  0.0000000000000D+00
   409  4.0800000000000D+00  0.0000000000000D+00  0.0000000000000D+00
   410  4.0900000000000D+00  0.0000000000000D+00  0.0000000000000D+00
   411  4.1000000000000D+00  0.0000000000000D+00  0.0000000000000D+00
   412  4.1100000000000D+00  0.0000000000000D+00  0.0000000000000D+00
   413  4.1200000000000D+00  0.0000000000000D+00  0.0000000000000D+00
   414  4.1300000000000D+00  0.0000000000000D+00  0.0000000000000D+00
   415  4.1400000000000D+00  0.0000000000000D+00  0.0000000000000D+00
   416  4.1500000000000D+00  0.0000000000000D+00  0.0000000000000D+00
   417  4.1600000000000D+00  0.0000000000000D+00  0.0000000000000D+00
   418  4.1700000000000D+00  0.0000000000000D+00  0.0000000000000D+00
   419  4.1800000000000D+00  0.0000000000000D+00  0.0000000000000D+00
   420  4.1900000000000D+00  0.0000000000000D+00  0.0000000000000D+00
   421  4.2000000000000D+00  0.0000000000000D+00  0.0000000000000D+00
   422  4.2100000000000D+00  0.0000000000000D+00  0.0000000000000D+00