Fe    ONCVPSP-3.3.0  r_core=   1.26437   1.20546   1.56719
     26.0000     16.0000      220117    zatom,zion,pspd
     8      11   2     4   600     0    pspcod,pspxc,lmax,lloc,mmax,r2well
  5.99000000  0.00000000  0.00000000    rchrg fchrg qchrg
     2     2     2     0     0    nproj
     1     1           extension_switch
   0                         1.0165788498888D+01  1.4646150645935D+00
     1  0.0000000000000D+00  6.2017058155561D-13  2.2306392843952D-10
     2  1.0000000000000D-02  9.5003991480130D-02 -2.8504563550460D-02
     3  2.0000000000000D-02  1.8971990861609D-01 -5.6755390038897D-02
     4  3.0000000000000D-02  2.8386067209095D-01 -8.4500162493062D-02
     5  4.0000000000000D-02  3.7714118961832D-01 -1.1148939569215D-01
     6  5.0000000000000D-02  4.6927934189736D-01 -1.3747783102892D-01
     7  6.0000000000000D-02  5.5999695949365D-01 -1.6222580631364D-01
     8  7.0000000000000D-02  6.4902078761929D-01 -1.8550059242980D-01
     9  8.0000000000000D-02  7.3608343578460D-01 -2.0707768897430D-01
    10  9.0000000000000D-02  8.2092430929472D-01 -2.2674207129126D-01
    11  1.0000000000000D-01  9.0329051956686D-01 -2.4428938163573D-01
    12  1.1000000000000D-01  9.8293777025014D-01 -2.5952705758052D-01
    13  1.2000000000000D-01  1.0596312161403D+00 -2.7227539120290D-01
    14  1.3000000000000D-01  1.1331462918978D+00 -2.8236851305540D-01
    15  1.4000000000000D-01  1.2032695075999D+00 -2.8965529543350D-01
    16  1.5000000000000D-01  1.2697992081909D+00 -2.9400016999857D-01
    17  1.6000000000000D-01  1.3325462939327D+00 -2.9528385539396D-01
    18  1.7000000000000D-01  1.3913348990133D+00 -2.9340399110061D-01
    19  1.8000000000000D-01  1.4460030255334D+00 -2.8827567441243D-01
    20  1.9000000000000D-01  1.4964031301699D+00 -2.7983189806526D-01
    21  2.0000000000000D-01  1.5424026609105D+00 -2.6802388672260D-01
    22  2.1000000000000D-01  1.5838845413590D+00 -2.5282133120018D-01
    23  2.2000000000000D-01  1.6207476002399D+00 -2.3421251999497D-01
    24  2.3000000000000D-01  1.6529069438724D+00 -2.1220436836725D-01
    25  2.4000000000000D-01  1.6802942695451D+00 -1.8682234590007D-01
    26  2.5000000000000D-01  1.7028581179026D+00 -1.5811030412418D-01
    27  2.6000000000000D-01  1.7205640626498D+00 -1.2613020644190D-01
    28  2.7000000000000D-01  1.7333948360989D+00 -9.0961763205323D-02
    29  2.8000000000000D-01  1.7413503893121D+00 -5.2701975396322D-02
    30  2.9000000000000D-01  1.7444478858452D+00 -1.1464590913559D-02
    31  3.0000000000000D-01  1.7427216283601D+00  3.2620522010591D-02
    32  3.1000000000000D-01  1.7362229176550D+00  7.9408079267350D-02
    33  3.2000000000000D-01  1.7250198439523D+00  1.2873815778297D-01
    34  3.3000000000000D-01  1.7091970105885D+00  1.8043703909399D-01
    35  3.4000000000000D-01  1.6888551905630D+00  2.3431811348050D-01
    36  3.5000000000000D-01  1.6641109167241D+00  2.9018283829795D-01
    37  3.6000000000000D-01  1.6350960066960D+00  3.4782174395329D-01
    38  3.7000000000000D-01  1.6019570239784D+00  4.0701548084216D-01
    39  3.8000000000000D-01  1.5648546769814D+00  4.6753590049650D-01
    40  3.9000000000000D-01  1.5239631580842D+00  5.2914716419038D-01
    41  4.0000000000000D-01  1.4794694251279D+00  5.9160687231269D-01
    42  4.1000000000000D-01  1.4315724280702D+00  6.5466720793736D-01
    43  4.2000000000000D-01  1.3804822838315D+00  7.1807608820513D-01
    44  4.3000000000000D-01  1.3264194026596D+00  7.8157831736783D-01
    45  4.4000000000000D-01  1.2696135696135D+00  8.4491673563815D-01
    46  4.5000000000000D-01  1.2103029850318D+00  9.0783335832510D-01
    47  4.6000000000000D-01  1.1487332680909D+00  9.7007050011689D-01
    48  4.7000000000000D-01  1.0851564277802D+00  1.0313718797899D+00
    49  4.8000000000000D-01  1.0198298058174D+00  1.0914837010688D+00
    50  4.9000000000000D-01  9.5301499620218D-01  1.1501557058339D+00
    51  5.0000000000000D-01  8.8497674625000D-01  1.2071421963552D+00
    52  5.1000000000000D-01  8.1598184407163D-01  1.2622030237269D+00
    53  5.2000000000000D-01  7.4629799755083D-01  1.3151045401689D+00
    54  5.3000000000000D-01  6.7619270993872D-01  1.3656205133444D+00
    55  5.4000000000000D-01  6.0593215721522D-01  1.4135330013147D+00
    56  5.5000000000000D-01  5.3578007237302D-01  1.4586331871935D+00
    57  5.6000000000000D-01  4.6599664175447D-01  1.5007221729815D+00
    58  5.7000000000000D-01  3.9683741851896D-01  1.5396117324321D+00
    59  5.8000000000000D-01  3.2855225823673D-01  1.5751250231385D+00
    60  5.9000000000000D-01  2.6138428149709D-01  1.6070972583063D+00
    61  6.0000000000000D-01  1.9556886828461D-01  1.6353763389086D+00
    62  6.1000000000000D-01  1.3133268871779D-01  1.6598234470852D+00
    63  6.2000000000000D-01  6.8892774563044D-02  1.6803136017545D+00
    64  6.3000000000000D-01  8.4556357322553D-03  1.6967361774474D+00
    65  6.4000000000000D-01 -4.9783574250470D-02  1.7089953873504D+00
    66  6.5000000000000D-01 -1.0564184006948D-01  1.7170107314555D+00
    67  6.6000000000000D-01 -1.5894901024011D-01  1.7207174105646D+00
    68  6.7000000000000D-01 -2.0954846331843D-01  1.7200667066801D+00
    69  6.8000000000000D-01 -2.5729771176821D-01  1.7150263300491D+00
    70  6.9000000000000D-01 -3.0206894084881D-01  1.7055807327984D+00
    71  7.0000000000000D-01 -3.4374948018986D-01  1.6917313887368D+00
    72  7.1000000000000D-01 -3.8224220602542D-01  1.6734970384865D+00
    73  7.2000000000000D-01 -4.1746587237451D-01  1.6509138986674D+00
    74  7.3000000000000D-01 -4.4935536976776D-01  1.6240358333947D+00
    75  7.4000000000000D-01 -4.7786191043563D-01  1.5929344858700D+00
    76  7.5000000000000D-01 -5.0295313918781D-01  1.5576993673665D+00
    77  7.6000000000000D-01 -5.2461316952354D-01  1.5184379004314D+00
    78  7.7000000000000D-01 -5.4284254482097D-01  1.4752754126695D+00
    79  7.8000000000000D-01 -5.5765812475421D-01  1.4283550770362D+00
    80  7.9000000000000D-01 -5.6909289738196D-01  1.3778377941777D+00
    81  8.0000000000000D-01 -5.7719571763811D-01  1.3239020120003D+00
    82  8.1000000000000D-01 -5.8203097323307D-01  1.2667434773646D+00
    83  8.2000000000000D-01 -5.8367817924237D-01  1.2065749145702D+00
    84  8.3000000000000D-01 -5.8223150291699D-01  1.1436256251433D+00
    85  8.4000000000000D-01 -5.7779922049582D-01  1.0781410033705D+00
    86  8.5000000000000D-01 -5.7050310803511D-01  1.0103819620300D+00
    87  8.6000000000000D-01 -5.6047776849141D-01  9.4062426288328D-01
    88  8.7000000000000D-01 -5.4786989750304D-01  8.6915774668379D-01
    89  8.8000000000000D-01 -5.3283749051038D-01  7.9628545775868D-01
    90  8.9000000000000D-01 -5.1554899403617D-01  7.2232265860987D-01
    91  9.0000000000000D-01 -4.9618240411389D-01  6.4759573046768D-01
    92  9.1000000000000D-01 -4.7492431500401D-01  5.7244095630926D-01
    93  9.2000000000000D-01 -4.5196892147474D-01  4.9720318352015D-01
    94  9.3000000000000D-01 -4.2751697804483D-01  4.2223436412399D-01
    95  9.4000000000000D-01 -4.0177471869113D-01  3.4789197132571D-01
    96  9.5000000000000D-01 -3.7495274061245D-01  2.7453729199768D-01
    97  9.6000000000000D-01 -3.4726485571266D-01  2.0253359567330D-01
    98  9.7000000000000D-01 -3.1892691352100D-01  1.3224418160180D-01
    99  9.8000000000000D-01 -2.9015559930359D-01  6.4030306402999D-02
   100  9.9000000000000D-01 -2.6116721113980D-01 -1.7510040964931D-03
   101  1.0000000000000D+00 -2.3217641973596D-01 -6.4749254250104D-02
   102  1.0100000000000D+00 -2.0339501473046D-01 -1.2462288360259D-01
   103  1.0200000000000D+00 -1.7503064120510D-01 -1.8104177094810D-01
   104  1.0300000000000D+00 -1.4728553006011D-01 -2.3368982993118D-01
   105  1.0400000000000D+00 -1.2035522582586D-01 -2.8226768779676D-01
   106  1.0500000000000D+00 -9.4427315397024D-02 -3.2649543816346D-01
   107  1.0600000000000D+00 -6.9680161040395D-02 -3.6611545790585D-01
   108  1.0700000000000D+00 -4.6281640841333D-02 -4.0089527788466D-01
   109  1.0800000000000D+00 -2.4387898206657D-02 -4.3063050153242D-01
   110  1.0900000000000D+00 -4.1420976827465D-03 -4.5514777758748D-01
   111  1.1000000000000D+00  1.4326664587471D-02 -4.7430732439228D-01
   112  1.1100000000000D+00  3.0905045463371D-02 -4.8800755919882D-01
   113  1.1200000000000D+00  4.5495184817535D-02 -4.9618306363811D-01
   114  1.1300000000000D+00  5.8011606816534D-02 -4.9879305281911D-01
   115  1.1400000000000D+00  6.8377714780061D-02 -4.9580932636006D-01
   116  1.1500000000000D+00  7.6525271247359D-02 -4.8721487749004D-01
   117  1.1600000000000D+00  8.2394750857845D-02 -4.7300564494606D-01
   118  1.1700000000000D+00  8.5935277032794D-02 -4.5319078298497D-01
   119  1.1800000000000D+00  8.7104641623146D-02 -4.2779324230342D-01
   120  1.1900000000000D+00  8.5869308978083D-02 -3.9685029047678D-01
   121  1.2000000000000D+00  8.2204402479412D-02 -3.6041395848134D-01
   122  1.2100000000000D+00  7.6093676231157D-02 -3.1855141504760D-01
   123  1.2200000000000D+00  6.7528372376127D-02 -2.7134153868509D-01
   124  1.2300000000000D+00  5.6449579730887D-02 -2.1868016796067D-01
   125  1.2400000000000D+00  4.3546555691165D-02 -1.6299830703022D-01
   126  1.2500000000000D+00  2.6924862831709D-02 -9.7893166830994D-02
   127  1.2600000000000D+00  6.5132934595219D-03 -2.3158683437703D-02
   128  1.2700000000000D+00 -2.3775254784381D-03  8.6519979185422D-03
   129  1.2800000000000D+00  7.1478570748783D-05 -2.6111097920957D-04
   130  1.2900000000000D+00  4.6538599953312D-04 -1.6938949517369D-03
   131  1.3000000000000D+00 -6.8392974263700D-05  2.5395832236959D-04
   132  1.3100000000000D+00 -6.2656360591477D-06  2.3234768566738D-05
   133  1.3200000000000D+00 -3.9387701564209D-07  9.0974076764427D-07
   134  1.3300000000000D+00  0.0000000000000D+00  0.0000000000000D+00
   135  1.3400000000000D+00  0.0000000000000D+00  0.0000000000000D+00
   136  1.3500000000000D+00  0.0000000000000D+00  0.0000000000000D+00
   137  1.3600000000000D+00  0.0000000000000D+00  0.0000000000000D+00
   138  1.3700000000000D+00  0.0000000000000D+00  0.0000000000000D+00
   139  1.3800000000000D+00  0.0000000000000D+00  0.0000000000000D+00
   140  1.3900000000000D+00  0.0000000000000D+00  0.0000000000000D+00
   141  1.4000000000000D+00  0.0000000000000D+00  0.0000000000000D+00
   142  1.4100000000000D+00  0.0000000000000D+00  0.0000000000000D+00
   143  1.4200000000000D+00  0.0000000000000D+00  0.0000000000000D+00
   144  1.4300000000000D+00  0.0000000000000D+00  0.0000000000000D+00
   145  1.4400000000000D+00  0.0000000000000D+00  0.0000000000000D+00
   146  1.4500000000000D+00  0.0000000000000D+00  0.0000000000000D+00
   147  1.4600000000000D+00  0.0000000000000D+00  0.0000000000000D+00
   148  1.4700000000000D+00  0.0000000000000D+00  0.0000000000000D+00
   149  1.4800000000000D+00  0.0000000000000D+00  0.0000000000000D+00
   150  1.4900000000000D+00  0.0000000000000D+00  0.0000000000000D+00
   151  1.5000000000000D+00  0.0000000000000D+00  0.0000000000000D+00
   152  1.5100000000000D+00  0.0000000000000D+00  0.0000000000000D+00
   153  1.5200000000000D+00  0.0000000000000D+00  0.0000000000000D+00
   154  1.5300000000000D+00  0.0000000000000D+00  0.0000000000000D+00
   155  1.5400000000000D+00  0.0000000000000D+00  0.0000000000000D+00
   156  1.5500000000000D+00  0.0000000000000D+00  0.0000000000000D+00
   157  1.5600000000000D+00  0.0000000000000D+00  0.0000000000000D+00
   158  1.5700000000000D+00  0.0000000000000D+00  0.0000000000000D+00
   159  1.5800000000000D+00  0.0000000000000D+00  0.0000000000000D+00
   160  1.5900000000000D+00  0.0000000000000D+00  0.0000000000000D+00
   161  1.6000000000000D+00  0.0000000000000D+00  0.0000000000000D+00
   162  1.6100000000000D+00  0.0000000000000D+00  0.0000000000000D+00
   163  1.6200000000000D+00  0.0000000000000D+00  0.0000000000000D+00
   164  1.6300000000000D+00  0.0000000000000D+00  0.0000000000000D+00
   165  1.6400000000000D+00  0.0000000000000D+00  0.0000000000000D+00
   166  1.6500000000000D+00  0.0000000000000D+00  0.0000000000000D+00
   167  1.6600000000000D+00  0.0000000000000D+00  0.0000000000000D+00
   168  1.6700000000000D+00  0.0000000000000D+00  0.0000000000000D+00
   169  1.6800000000000D+00  0.0000000000000D+00  0.0000000000000D+00
   170  1.6900000000000D+00  0.0000000000000D+00  0.0000000000000D+00
   171  1.7000000000000D+00  0.0000000000000D+00  0.0000000000000D+00
   172  1.7100000000000D+00  0.0000000000000D+00  0.0000000000000D+00
   173  1.7200000000000D+00  0.0000000000000D+00  0.0000000000000D+00
   174  1.7300000000000D+00  0.0000000000000D+00  0.0000000000000D+00
   175  1.7400000000000D+00  0.0000000000000D+00  0.0000000000000D+00
   176  1.7500000000000D+00  0.0000000000000D+00  0.0000000000000D+00
   177  1.7600000000000D+00  0.0000000000000D+00  0.0000000000000D+00
   178  1.7700000000000D+00  0.0000000000000D+00  0.0000000000000D+00
   179  1.7800000000000D+00  0.0000000000000D+00  0.0000000000000D+00
   180  1.7900000000000D+00  0.0000000000000D+00  0.0000000000000D+00
   181  1.8000000000000D+00  0.0000000000000D+00  0.0000000000000D+00
   182  1.8100000000000D+00  0.0000000000000D+00  0.0000000000000D+00
   183  1.8200000000000D+00  0.0000000000000D+00  0.0000000000000D+00
   184  1.8300000000000D+00  0.0000000000000D+00  0.0000000000000D+00
   185  1.8400000000000D+00  0.0000000000000D+00  0.0000000000000D+00
   186  1.8500000000000D+00  0.0000000000000D+00  0.0000000000000D+00
   187  1.8600000000000D+00  0.0000000000000D+00  0.0000000000000D+00
   188  1.8700000000000D+00  0.0000000000000D+00  0.0000000000000D+00
   189  1.8800000000000D+00  0.0000000000000D+00  0.0000000000000D+00
   190  1.8900000000000D+00  0.0000000000000D+00  0.0000000000000D+00
   191  1.9000000000000D+00  0.0000000000000D+00  0.0000000000000D+00
   192  1.9100000000000D+00  0.0000000000000D+00  0.0000000000000D+00
   193  1.9200000000000D+00  0.0000000000000D+00  0.0000000000000D+00
   194  1.9300000000000D+00  0.0000000000000D+00  0.0000000000000D+00
   195  1.9400000000000D+00  0.0000000000000D+00  0.0000000000000D+00
   196  1.9500000000000D+00  0.0000000000000D+00  0.0000000000000D+00
   197  1.9600000000000D+00  0.0000000000000D+00  0.0000000000000D+00
   198  1.9700000000000D+00  0.0000000000000D+00  0.0000000000000D+00
   199  1.9800000000000D+00  0.0000000000000D+00  0.0000000000000D+00
   200  1.9900000000000D+00  0.0000000000000D+00  0.0000000000000D+00
   201  2.0000000000000D+00  0.0000000000000D+00  0.0000000000000D+00
   202  2.0100000000000D+00  0.0000000000000D+00  0.0000000000000D+00
   203  2.0200000000000D+00  0.0000000000000D+00  0.0000000000000D+00
   204  2.0300000000000D+00  0.0000000000000D+00  0.0000000000000D+00
   205  2.0400000000000D+00  0.0000000000000D+00  0.0000000000000D+00
   206  2.0500000000000D+00  0.0000000000000D+00  0.0000000000000D+00
   207  2.0600000000000D+00  0.0000000000000D+00  0.0000000000000D+00
   208  2.0700000000000D+00  0.0000000000000D+00  0.0000000000000D+00
   209  2.0800000000000D+00  0.0000000000000D+00  0.0000000000000D+00
   210  2.0900000000000D+00  0.0000000000000D+00  0.0000000000000D+00
   211  2.1000000000000D+00  0.0000000000000D+00  0.0000000000000D+00
   212  2.1100000000000D+00  0.0000000000000D+00  0.0000000000000D+00
   213  2.1200000000000D+00  0.0000000000000D+00  0.0000000000000D+00
   214  2.1300000000000D+00  0.0000000000000D+00  0.0000000000000D+00
   215  2.1400000000000D+00  0.0000000000000D+00  0.0000000000000D+00
   216  2.1500000000000D+00  0.0000000000000D+00  0.0000000000000D+00
   217  2.1600000000000D+00  0.0000000000000D+00  0.0000000000000D+00
   218  2.1700000000000D+00  0.0000000000000D+00  0.0000000000000D+00
   219  2.1800000000000D+00  0.0000000000000D+00  0.0000000000000D+00
   220  2.1900000000000D+00  0.0000000000000D+00  0.0000000000000D+00
   221  2.2000000000000D+00  0.0000000000000D+00  0.0000000000000D+00
   222  2.2100000000000D+00  0.0000000000000D+00  0.0000000000000D+00
   223  2.2200000000000D+00  0.0000000000000D+00  0.0000000000000D+00
   224  2.2300000000000D+00  0.0000000000000D+00  0.0000000000000D+00
   225  2.2400000000000D+00  0.0000000000000D+00  0.0000000000000D+00
   226  2.2500000000000D+00  0.0000000000000D+00  0.0000000000000D+00
   227  2.2600000000000D+00  0.0000000000000D+00  0.0000000000000D+00
   228  2.2700000000000D+00  0.0000000000000D+00  0.0000000000000D+00
   229  2.2800000000000D+00  0.0000000000000D+00  0.0000000000000D+00
   230  2.2900000000000D+00  0.0000000000000D+00  0.0000000000000D+00
   231  2.3000000000000D+00  0.0000000000000D+00  0.0000000000000D+00
   232  2.3100000000000D+00  0.0000000000000D+00  0.0000000000000D+00
   233  2.3200000000000D+00  0.0000000000000D+00  0.0000000000000D+00
   234  2.3300000000000D+00  0.0000000000000D+00  0.0000000000000D+00
   235  2.3400000000000D+00  0.0000000000000D+00  0.0000000000000D+00
   236  2.3500000000000D+00  0.0000000000000D+00  0.0000000000000D+00
   237  2.3600000000000D+00  0.0000000000000D+00  0.0000000000000D+00
   238  2.3700000000000D+00  0.0000000000000D+00  0.0000000000000D+00
   239  2.3800000000000D+00  0.0000000000000D+00  0.0000000000000D+00
   240  2.3900000000000D+00  0.0000000000000D+00  0.0000000000000D+00
   241  2.4000000000000D+00  0.0000000000000D+00  0.0000000000000D+00
   242  2.4100000000000D+00  0.0000000000000D+00  0.0000000000000D+00
   243  2.4200000000000D+00  0.0000000000000D+00  0.0000000000000D+00
   244  2.4300000000000D+00  0.0000000000000D+00  0.0000000000000D+00
   245  2.4400000000000D+00  0.0000000000000D+00  0.0000000000000D+00
   246  2.4500000000000D+00  0.0000000000000D+00  0.0000000000000D+00
   247  2.4600000000000D+00  0.0000000000000D+00  0.0000000000000D+00
   248  2.4700000000000D+00  0.0000000000000D+00  0.0000000000000D+00
   249  2.4800000000000D+00  0.0000000000000D+00  0.0000000000000D+00
   250  2.4900000000000D+00  0.0000000000000D+00  0.0000000000000D+00
   251  2.5000000000000D+00  0.0000000000000D+00  0.0000000000000D+00
   252  2.5100000000000D+00  0.0000000000000D+00  0.0000000000000D+00
   253  2.5200000000000D+00  0.0000000000000D+00  0.0000000000000D+00
   254  2.5300000000000D+00  0.0000000000000D+00  0.0000000000000D+00
   255  2.5400000000000D+00  0.0000000000000D+00  0.0000000000000D+00
   256  2.5500000000000D+00  0.0000000000000D+00  0.0000000000000D+00
   257  2.5600000000000D+00  0.0000000000000D+00  0.0000000000000D+00
   258  2.5700000000000D+00  0.0000000000000D+00  0.0000000000000D+00
   259  2.5800000000000D+00  0.0000000000000D+00  0.0000000000000D+00
   260  2.5900000000000D+00  0.0000000000000D+00  0.0000000000000D+00
   261  2.6000000000000D+00  0.0000000000000D+00  0.0000000000000D+00
   262  2.6100000000000D+00  0.0000000000000D+00  0.0000000000000D+00
   263  2.6200000000000D+00  0.0000000000000D+00  0.0000000000000D+00
   264  2.6300000000000D+00  0.0000000000000D+00  0.0000000000000D+00
   265  2.6400000000000D+00  0.0000000000000D+00  0.0000000000000D+00
   266  2.6500000000000D+00  0.0000000000000D+00  0.0000000000000D+00
   267  2.6600000000000D+00  0.0000000000000D+00  0.0000000000000D+00
   268  2.6700000000000D+00  0.0000000000000D+00  0.0000000000000D+00
   269  2.6800000000000D+00  0.0000000000000D+00  0.0000000000000D+00
   270  2.6900000000000D+00  0.0000000000000D+00  0.0000000000000D+00
   271  2.7000000000000D+00  0.0000000000000D+00  0.0000000000000D+00
   272  2.7100000000000D+00  0.0000000000000D+00  0.0000000000000D+00
   273  2.7200000000000D+00  0.0000000000000D+00  0.0000000000000D+00
   274  2.7300000000000D+00  0.0000000000000D+00  0.0000000000000D+00
   275  2.7400000000000D+00  0.0000000000000D+00  0.0000000000000D+00
   276  2.7500000000000D+00  0.0000000000000D+00  0.0000000000000D+00
   277  2.7600000000000D+00  0.0000000000000D+00  0.0000000000000D+00
   278  2.7700000000000D+00  0.0000000000000D+00  0.0000000000000D+00
   279  2.7800000000000D+00  0.0000000000000D+00  0.0000000000000D+00
   280  2.7900000000000D+00  0.0000000000000D+00  0.0000000000000D+00
   281  2.8000000000000D+00  0.0000000000000D+00  0.0000000000000D+00
   282  2.8100000000000D+00  0.0000000000000D+00  0.0000000000000D+00
   283  2.8200000000000D+00  0.0000000000000D+00  0.0000000000000D+00
   284  2.8300000000000D+00  0.0000000000000D+00  0.0000000000000D+00
   285  2.8400000000000D+00  0.0000000000000D+00  0.0000000000000D+00
   286  2.8500000000000D+00  0.0000000000000D+00  0.0000000000000D+00
   287  2.8600000000000D+00  0.0000000000000D+00  0.0000000000000D+00
   288  2.8700000000000D+00  0.0000000000000D+00  0.0000000000000D+00
   289  2.8800000000000D+00  0.0000000000000D+00  0.0000000000000D+00
   290  2.8900000000000D+00  0.0000000000000D+00  0.0000000000000D+00
   291  2.9000000000000D+00  0.0000000000000D+00  0.0000000000000D+00
   292  2.9100000000000D+00  0.0000000000000D+00  0.0000000000000D+00
   293  2.9200000000000D+00  0.0000000000000D+00  0.0000000000000D+00
   294  2.9300000000000D+00  0.0000000000000D+00  0.0000000000000D+00
   295  2.9400000000000D+00  0.0000000000000D+00  0.0000000000000D+00
   296  2.9500000000000D+00  0.0000000000000D+00  0.0000000000000D+00
   297  2.9600000000000D+00  0.0000000000000D+00  0.0000000000000D+00
   298  2.9700000000000D+00  0.0000000000000D+00  0.0000000000000D+00
   299  2.9800000000000D+00  0.0000000000000D+00  0.0000000000000D+00
   300  2.9900000000000D+00  0.0000000000000D+00  0.0000000000000D+00
   301  3.0000000000000D+00  0.0000000000000D+00  0.0000000000000D+00
   302  3.0100000000000D+00  0.0000000000000D+00  0.0000000000000D+00
   303  3.0200000000000D+00  0.0000000000000D+00  0.0000000000000D+00
   304  3.0300000000000D+00  0.0000000000000D+00  0.0000000000000D+00
   305  3.0400000000000D+00  0.0000000000000D+00  0.0000000000000D+00
   306  3.0500000000000D+00  0.0000000000000D+00  0.0000000000000D+00
   307  3.0600000000000D+00  0.0000000000000D+00  0.0000000000000D+00
   308  3.0700000000000D+00  0.0000000000000D+00  0.0000000000000D+00
   309  3.0800000000000D+00  0.0000000000000D+00  0.0000000000000D+00
   310  3.0900000000000D+00  0.0000000000000D+00  0.0000000000000D+00
   311  3.1000000000000D+00  0.0000000000000D+00  0.0000000000000D+00
   312  3.1100000000000D+00  0.0000000000000D+00  0.0000000000000D+00
   313  3.1200000000000D+00  0.0000000000000D+00  0.0000000000000D+00
   314  3.1300000000000D+00  0.0000000000000D+00  0.0000000000000D+00
   315  3.1400000000000D+00  0.0000000000000D+00  0.0000000000000D+00
   316  3.1500000000000D+00  0.0000000000000D+00  0.0000000000000D+00
   317  3.1600000000000D+00  0.0000000000000D+00  0.0000000000000D+00
   318  3.1700000000000D+00  0.0000000000000D+00  0.0000000000000D+00
   319  3.1800000000000D+00  0.0000000000000D+00  0.0000000000000D+00
   320  3.1900000000000D+00  0.0000000000000D+00  0.0000000000000D+00
   321  3.2000000000000D+00  0.0000000000000D+00  0.0000000000000D+00
   322  3.2100000000000D+00  0.0000000000000D+00  0.0000000000000D+00
   323  3.2200000000000D+00  0.0000000000000D+00  0.0000000000000D+00
   324  3.2300000000000D+00  0.0000000000000D+00  0.0000000000000D+00
   325  3.2400000000000D+00  0.0000000000000D+00  0.0000000000000D+00
   326  3.2500000000000D+00  0.0000000000000D+00  0.0000000000000D+00
   327  3.2600000000000D+00  0.0000000000000D+00  0.0000000000000D+00
   328  3.2700000000000D+00  0.0000000000000D+00  0.0000000000000D+00
   329  3.2800000000000D+00  0.0000000000000D+00  0.0000000000000D+00
   330  3.2900000000000D+00  0.0000000000000D+00  0.0000000000000D+00
   331  3.3000000000000D+00  0.0000000000000D+00  0.0000000000000D+00
   332  3.3100000000000D+00  0.0000000000000D+00  0.0000000000000D+00
   333  3.3200000000000D+00  0.0000000000000D+00  0.0000000000000D+00
   334  3.3300000000000D+00  0.0000000000000D+00  0.0000000000000D+00
   335  3.3400000000000D+00  0.0000000000000D+00  0.0000000000000D+00
   336  3.3500000000000D+00  0.0000000000000D+00  0.0000000000000D+00
   337  3.3600000000000D+00  0.0000000000000D+00  0.0000000000000D+00
   338  3.3700000000000D+00  0.0000000000000D+00  0.0000000000000D+00
   339  3.3800000000000D+00  0.0000000000000D+00  0.0000000000000D+00
   340  3.3900000000000D+00  0.0000000000000D+00  0.0000000000000D+00
   341  3.4000000000000D+00  0.0000000000000D+00  0.0000000000000D+00
   342  3.4100000000000D+00  0.0000000000000D+00  0.0000000000000D+00
   343  3.4200000000000D+00  0.0000000000000D+00  0.0000000000000D+00
   344  3.4300000000000D+00  0.0000000000000D+00  0.0000000000000D+00
   345  3.4400000000000D+00  0.0000000000000D+00  0.0000000000000D+00
   346  3.4500000000000D+00  0.0000000000000D+00  0.0000000000000D+00
   347  3.4600000000000D+00  0.0000000000000D+00  0.0000000000000D+00
   348  3.4700000000000D+00  0.0000000000000D+00  0.0000000000000D+00
   349  3.4800000000000D+00  0.0000000000000D+00  0.0000000000000D+00
   350  3.4900000000000D+00  0.0000000000000D+00  0.0000000000000D+00
   351  3.5000000000000D+00  0.0000000000000D+00  0.0000000000000D+00
   352  3.5100000000000D+00  0.0000000000000D+00  0.0000000000000D+00
   353  3.5200000000000D+00  0.0000000000000D+00  0.0000000000000D+00
   354  3.5300000000000D+00  0.0000000000000D+00  0.0000000000000D+00
   355  3.5400000000000D+00  0.0000000000000D+00  0.0000000000000D+00
   356  3.5500000000000D+00  0.0000000000000D+00  0.0000000000000D+00
   357  3.5600000000000D+00  0.0000000000000D+00  0.0000000000000D+00
   358  3.5700000000000D+00  0.0000000000000D+00  0.0000000000000D+00
   359  3.5800000000000D+00  0.0000000000000D+00  0.0000000000000D+00
   360  3.5900000000000D+00  0.0000000000000D+00  0.0000000000000D+00
   361  3.6000000000000D+00  0.0000000000000D+00  0.0000000000000D+00
   362  3.6100000000000D+00  0.0000000000000D+00  0.0000000000000D+00
   363  3.6200000000000D+00  0.0000000000000D+00  0.0000000000000D+00
   364  3.6300000000000D+00  0.0000000000000D+00  0.0000000000000D+00
   365  3.6400000000000D+00  0.0000000000000D+00  0.0000000000000D+00
   366  3.6500000000000D+00  0.0000000000000D+00  0.0000000000000D+00
   367  3.6600000000000D+00  0.0000000000000D+00  0.0000000000000D+00
   368  3.6700000000000D+00  0.0000000000000D+00  0.0000000000000D+00
   369  3.6800000000000D+00  0.0000000000000D+00  0.0000000000000D+00
   370  3.6900000000000D+00  0.0000000000000D+00  0.0000000000000D+00
   371  3.7000000000000D+00  0.0000000000000D+00  0.0000000000000D+00
   372  3.7100000000000D+00  0.0000000000000D+00  0.0000000000000D+00
   373  3.7200000000000D+00  0.0000000000000D+00  0.0000000000000D+00
   374  3.7300000000000D+00  0.0000000000000D+00  0.0000000000000D+00
   375  3.7400000000000D+00  0.0000000000000D+00  0.0000000000000D+00
   376  3.7500000000000D+00  0.0000000000000D+00  0.0000000000000D+00
   377  3.7600000000000D+00  0.0000000000000D+00  0.0000000000000D+00
   378  3.7700000000000D+00  0.0000000000000D+00  0.0000000000000D+00
   379  3.7800000000000D+00  0.0000000000000D+00  0.0000000000000D+00
   380  3.7900000000000D+00  0.0000000000000D+00  0.0000000000000D+00
   381  3.8000000000000D+00  0.0000000000000D+00  0.0000000000000D+00
   382  3.8100000000000D+00  0.0000000000000D+00  0.0000000000000D+00
   383  3.8200000000000D+00  0.0000000000000D+00  0.0000000000000D+00
   384  3.8300000000000D+00  0.0000000000000D+00  0.0000000000000D+00
   385  3.8400000000000D+00  0.0000000000000D+00  0.0000000000000D+00
   386  3.8500000000000D+00  0.0000000000000D+00  0.0000000000000D+00
   387  3.8600000000000D+00  0.0000000000000D+00  0.0000000000000D+00
   388  3.8700000000000D+00  0.0000000000000D+00  0.0000000000000D+00
   389  3.8800000000000D+00  0.0000000000000D+00  0.0000000000000D+00
   390  3.8900000000000D+00  0.0000000000000D+00  0.0000000000000D+00
   391  3.9000000000000D+00  0.0000000000000D+00  0.0000000000000D+00
   392  3.9100000000000D+00  0.0000000000000D+00  0.0000000000000D+00
   393  3.9200000000000D+00  0.0000000000000D+00  0.0000000000000D+00
   394  3.9300000000000D+00  0.0000000000000D+00  0.0000000000000D+00
   395  3.9400000000000D+00  0.0000000000000D+00  0.0000000000000D+00
   396  3.9500000000000D+00  0.0000000000000D+00  0.0000000000000D+00
   397  3.9600000000000D+00  0.0000000000000D+00  0.0000000000000D+00
   398  3.9700000000000D+00  0.0000000000000D+00  0.0000000000000D+00
   399  3.9800000000000D+00  0.0000000000000D+00  0.0000000000000D+00
   400  3.9900000000000D+00  0.0000000000000D+00  0.0000000000000D+00
   401  4.0000000000000D+00  0.0000000000000D+00  0.0000000000000D+00
   402  4.0100000000000D+00  0.0000000000000D+00  0.0000000000000D+00
   403  4.0200000000000D+00  0.0000000000000D+00  0.0000000000000D+00
   404  4.0300000000000D+00  0.0000000000000D+00  0.0000000000000D+00
   405  4.0400000000000D+00  0.0000000000000D+00  0.0000000000000D+00
   406  4.0500000000000D+00  0.0000000000000D+00  0.0000000000000D+00
   407  4.0600000000000D+00  0.0000000000000D+00  0.0000000000000D+00
   408  4.0700000000000D+00  0.0000000000000D+00  0.0000000000000D+00
   409  4.0800000000000D+00  0.0000000000000D+00  0.0000000000000D+00
   410  4.0900000000000D+00  0.0000000000000D+00  0.0000000000000D+00
   411  4.1000000000000D+00  0.0000000000000D+00  0.0000000000000D+00
   412  4.1100000000000D+00  0.0000000000000D+00  0.0000000000000D+00
   413  4.1200000000000D+00  0.0000000000000D+00  0.0000000000000D+00
   414  4.1300000000000D+00  0.0000000000000D+00  0.0000000000000D+00
   415  4.1400000000000D+00  0.0000000000000D+00  0.0000000000000D+00
   416  4.1500000000000D+00  0.0000000000000D+00  0.0000000000000D+00
   417  4.1600000000000D+00  0.0000000000000D+00  0.0000000000000D+00
   418  4.1700000000000D+00  0.0000000000000D+00  0.0000000000000D+00
   419  4.1800000000000D+00  0.0000000000000D+00  0.0000000000000D+00
   420  4.1900000000000D+00  0.0000000000000D+00  0.0000000000000D+00
   421  4.2000000000000D+00  0.0000000000000D+00  0.0000000000000D+00
   422  4.2100000000000D+00  0.0000000000000D+00  0.0000000000000D+00