Si    ONCVPSP-3.3.0  r_core=   1.40591   1.60303   1.80612
     14.0000     12.0000      220117    zatom,zion,pspd
     8      11   2     4   600     0    pspcod,pspxc,lmax,lloc,mmax,r2well
  5.99000000  0.00000000  0.00000000    rchrg fchrg qchrg
     2     2     2     0     0    nproj
     1     1           extension_switch
   0                         1.8360502484595D+00 -1.6640355120002D+00
     1  0.0000000000000D+00 -1.4562102634841D-09  2.2528179322023D-10
     2  1.0000000000000D-02  1.3612856381563D-01  4.3769627133128D-02
     3  2.0000000000000D-02  2.7142247221587D-01  8.7545530854588D-02
     4  3.0000000000000D-02  4.0505283072321D-01  1.3133342199093D-01
     5  4.0000000000000D-02  5.3620222253483D-01  1.7513788581973D-01
     6  5.0000000000000D-02  6.6407033722992D-01  2.1896183417390D-01
     7  6.0000000000000D-02  7.8787946836070D-01  2.6280597523945D-01
     8  7.0000000000000D-02  9.0687983794459D-01  3.0666830667787D-01
     9  8.0000000000000D-02  1.0203547073312D+00  3.5054363747883D-01
    10  9.0000000000000D-02  1.1276252357134D+00  3.9442314367185D-01
    11  1.0000000000000D-01  1.2280550496692D+00  4.3829396269852D-01
    12  1.1000000000000D-01  1.3210544895429D+00  4.8213883087415D-01
    13  1.2000000000000D-01  1.4060845011759D+00  5.2593576795213D-01
    14  1.3000000000000D-01  1.4826601444564D+00  5.6965781235056D-01
    15  1.4000000000000D-01  1.5503536933466D+00  6.1327281011288D-01
    16  1.5000000000000D-01  1.6087973054336D+00  6.5674326015713D-01
    17  1.6000000000000D-01  1.6576852426115D+00  7.0002621782754D-01
    18  1.7000000000000D-01  1.6967756282001D+00  7.4307325820225D-01
    19  1.8000000000000D-01  1.7258917296038D+00  7.8583050003751D-01
    20  1.9000000000000D-01  1.7449227594927D+00  8.2823869064821D-01
    21  2.0000000000000D-01  1.7538241923926D+00  8.7023335144102D-01
    22  2.1000000000000D-01  1.7526175974820D+00  9.1174498323741D-01
    23  2.2000000000000D-01  1.7413899922712D+00  9.5269932995334D-01
    24  2.3000000000000D-01  1.7202927256466D+00  9.9301769864697D-01
    25  2.4000000000000D-01  1.6895399024747D+00  1.0326173334102D+00
    26  2.5000000000000D-01  1.6494063655319D+00  1.0714118400695D+00
    27  2.6000000000000D-01  1.6002252539413D+00  1.1093116581813D+00
    28  2.7000000000000D-01  1.5423851605182D+00  1.1462245763621D+00
    29  2.8000000000000D-01  1.4763269134219D+00  1.1820562865839D+00
    30  2.9000000000000D-01  1.4025400102733D+00  1.2167109727068D+00
    31  3.0000000000000D-01  1.3215587353831D+00  1.2500919281937D+00
    32  3.1000000000000D-01  1.2339579929424D+00  1.2821021976918D+00
    33  3.2000000000000D-01  1.1403488909280D+00  1.3126452369376D+00
    34  3.3000000000000D-01  1.0413741120603D+00  1.3416255852841D+00
    35  3.4000000000000D-01  9.3770310941204D-01  1.3689495450315D+00
    36  3.5000000000000D-01  8.3002716518930D-01  1.3945258616891D+00
    37  3.6000000000000D-01  7.1905435179570D-01  1.4182663992946D+00
    38  3.7000000000000D-01  6.0550443453788D-01  1.4400868049675D+00
    39  3.8000000000000D-01  4.9010375524295D-01  1.4599071569845D+00
    40  3.9000000000000D-01  3.7358013564076D-01  1.4776525908198D+00
    41  4.0000000000000D-01  2.5665783862323D-01  1.4932538978080D+00
    42  4.1000000000000D-01  1.4005262444292D-01  1.5066480913399D+00
    43  4.2000000000000D-01  2.4466937567299D-02  1.5177789358103D+00
    44  4.3000000000000D-01 -8.9414741718671D-02  1.5265974338760D+00
    45  4.4000000000000D-01 -2.0093034875157D-01  1.5330622679698D+00
    46  4.5000000000000D-01 -3.0944445887910D-01  1.5371401924297D+00
    47  4.6000000000000D-01 -4.1435225703963D-01  1.5388063730510D+00
    48  4.7000000000000D-01 -5.1508322729083D-01  1.5380446713390D+00
    49  4.8000000000000D-01 -6.1110453972273D-01  1.5348478712307D+00
    50  4.9000000000000D-01 -7.0192411500061D-01  1.5292178465639D+00
    51  5.0000000000000D-01 -7.8709334969420D-01  1.5211656680839D+00
    52  5.1000000000000D-01 -8.6620948853349D-01  1.5107116493025D+00
    53  5.2000000000000D-01 -9.3891763275802D-01  1.4978853310468D+00
    54  5.3000000000000D-01 -1.0049123767673D+00  1.4827254050474D+00
    55  5.4000000000000D-01 -1.0639390682998D+00  1.4652795774266D+00
    56  5.5000000000000D-01 -1.1157946903513D+00  1.4456043734374D+00
    57  5.6000000000000D-01 -1.1603283659439D+00  1.4237648852752D+00
    58  5.7000000000000D-01 -1.1974414896668D+00  1.3998344652376D+00
    59  5.8000000000000D-01 -1.2270874925927D+00  1.3738943669259D+00
    60  5.9000000000000D-01 -1.2492712497064D+00  1.3460333375763D+00
    61  6.0000000000000D-01 -1.2640481413582D+00  1.3163471649650D+00
    62  6.1000000000000D-01 -1.2715227824276D+00  1.2849381826538D+00
    63  6.2000000000000D-01 -1.2718474348700D+00  1.2519147376237D+00
    64  6.3000000000000D-01 -1.2652201210778D+00  1.2173906245853D+00
    65  6.4000000000000D-01 -1.2518824570213D+00  1.1814844914552D+00
    66  6.5000000000000D-01 -1.2321172254350D+00  1.1443192206421D+00
    67  6.6000000000000D-01 -1.2062457103684D+00  1.1060212908980D+00
    68  6.7000000000000D-01 -1.1746248152278D+00  1.0667201245599D+00
    69  6.8000000000000D-01 -1.1376439870024D+00  1.0265474250312D+00
    70  6.9000000000000D-01 -1.0957219696829D+00  9.8563650933395D-01
    71  7.0000000000000D-01 -1.0493034099603D+00  9.4412164050602D-01
    72  7.1000000000000D-01 -9.9885533814197D-01  9.0213736451794D-01
    73  7.2000000000000D-01 -9.4486354684245D-01  8.5981785624757D-01
    74  7.3000000000000D-01 -8.8782888942357D-01  8.1729627888113D-01
    75  7.4000000000000D-01 -8.2826351937106D-01  7.7470416090396D-01
    76  7.5000000000000D-01 -7.6668709083192D-01  7.3217079461124D-01
    77  7.6000000000000D-01 -7.0362293940817D-01  6.8982265980912D-01
    78  7.7000000000000D-01 -6.3959426102300D-01  6.4778287609169D-01
    79  7.8000000000000D-01 -5.7512030527741D-01  6.0617068677644D-01
    80  7.9000000000000D-01 -5.1071259820636D-01  5.6510097725996D-01
    81  8.0000000000000D-01 -4.4687120775167D-01  5.2468383022223D-01
    82  8.1000000000000D-01 -3.8408106361323D-01  4.8502411976475D-01
    83  8.2000000000000D-01 -3.2280834144372D-01  4.4622114621844D-01
    84  8.3000000000000D-01 -2.6349691963404D-01  4.0836831300569D-01
    85  8.4000000000000D-01 -2.0656491522077D-01  3.7155284658952D-01
    86  8.5000000000000D-01 -1.5240130375080D-01  3.3585556019542D-01
    87  8.6000000000000D-01 -1.0136262628403D-01  3.0135066165091D-01
    88  8.7000000000000D-01 -5.3769785118552D-02  2.6810560535688D-01
    89  8.8000000000000D-01 -9.9049283032193D-03  2.3618098808574D-01
    90  8.9000000000000D-01  2.9991578424857D-02  2.0563048799721D-01
    91  9.0000000000000D-01  6.5724094962024D-02  1.7650084597501D-01
    92  9.1000000000000D-01  9.7144569305293D-02  1.4883188811809D-01
    93  9.2000000000000D-01  1.2415532412407D-01  1.2265658797116D-01
    94  9.3000000000000D-01  1.4671177332933D-01  9.8001166851098D-02
    95  9.4000000000000D-01  1.6482507532110D-01  7.4885230420290D-02
    96  9.5000000000000D-01  1.7856473023243D-01  5.3321939475398D-02
    97  9.6000000000000D-01  1.8806112897089D-01  3.3318212761114D-02
    98  9.7000000000000D-01  1.9350806218642D-01  1.4874959483452D-02
    99  9.8000000000000D-01  1.9516520734134D-01 -2.0126603216194D-03
   100  9.9000000000000D-01  1.9336060319563D-01 -1.7354950586954D-02
   101  1.0000000000000D+00  1.8849253808759D-01 -3.1167402960472D-02
   102  1.0100000000000D+00  1.8103424419753D-01 -4.3470238088445D-02
   103  1.0200000000000D+00  1.7152322261600D-01 -5.4288850737429D-02
   104  1.0300000000000D+00  1.6053174694130D-01 -6.3655160498933D-02
   105  1.0400000000000D+00  1.4863795138706D-01 -7.1608518900175D-02
   106  1.0500000000000D+00  1.3641782254322D-01 -7.8195163319099D-02
   107  1.0600000000000D+00  1.2443389361928D-01 -8.3467824060750D-02
   108  1.0700000000000D+00  1.1322264979450D-01 -8.7485344449222D-02
   109  1.0800000000000D+00  1.0328034763404D-01 -9.0312325752410D-02
   110  1.0900000000000D+00  9.5047587288157D-02 -9.2018776329098D-02
   111  1.1000000000000D+00  8.8893052217576D-02 -9.2679747118420D-02
   112  1.1100000000000D+00  8.5097140125884D-02 -9.2374927190337D-02
   113  1.1200000000000D+00  8.3836484650299D-02 -9.1188170652280D-02
   114  1.1300000000000D+00  8.5170597599654D-02 -8.9206925994746D-02
   115  1.1400000000000D+00  8.9032015218866D-02 -8.6521542658640D-02
   116  1.1500000000000D+00  9.5221458962430D-02 -8.3224433522160D-02
   117  1.1600000000000D+00  1.0340941881714D-01 -7.9409086203021D-02
   118  1.1700000000000D+00  1.1314522959022D-01 -7.5168930751779D-02
   119  1.1800000000000D+00  1.2387427532513D-01 -7.0596087034251D-02
   120  1.1900000000000D+00  1.3496337750302D-01 -6.5780034403747D-02
   121  1.2000000000000D+00  1.4573336020476D-01 -6.0806267949967D-02
   122  1.2100000000000D+00  1.5549705311772D-01 -5.5755010914894D-02
   123  1.2200000000000D+00  1.6360043779826D-01 -5.0700064350527D-02
   124  1.2300000000000D+00  1.6946349928406D-01 -4.5707873059097D-02
   125  1.2400000000000D+00  1.7261768862083D-01 -4.0836863320624D-02
   126  1.2500000000000D+00  1.7273666167053D-01 -3.6137102684523D-02
   127  1.2600000000000D+00  1.6965737713018D-01 -3.1650294401058D-02
   128  1.2700000000000D+00  1.6339019098614D-01 -2.7410082246563D-02
   129  1.2800000000000D+00  1.5411676673404D-01 -2.3442634338360D-02
   130  1.2900000000000D+00  1.4217642992219D-01 -1.9767428200440D-02
   131  1.3000000000000D+00  1.2804289618803D-01 -1.6398158684901D-02
   132  1.3100000000000D+00  1.1229326592855D-01 -1.3343686104285D-02
   133  1.3200000000000D+00  9.5572925560847D-02 -1.0608933464493D-02
   134  1.3300000000000D+00  7.8558924010529D-02 -8.1956857164606D-03
   135  1.3400000000000D+00  6.1925188171490D-02 -6.1032220869182D-03
   136  1.3500000000000D+00  4.6311825163779D-02 -4.3287731442652D-03
   137  1.3600000000000D+00  3.2305862199520D-02 -2.8681857074603D-03
   138  1.3700000000000D+00  2.0398248844851D-02 -1.7144739693773D-03
   139  1.3800000000000D+00  1.0938316831677D-02 -8.5595001713527D-04
   140  1.3900000000000D+00  4.4747883316967D-03 -2.9623899103419D-04
   141  1.4000000000000D+00  1.2119119463571D-03 -2.1821786108185D-05
   142  1.4100000000000D+00  1.0387078069283D-04  4.4320210119882D-05
   143  1.4200000000000D+00 -2.4176831745469D-05  1.1411224321181D-05
   144  1.4300000000000D+00  2.9005467932575D-05 -9.4216377432529D-06
   145  1.4400000000000D+00 -8.6796509405141D-08  6.4795800591062D-08
   146  1.4500000000000D+00 -3.2587476372253D-06  1.7805862184066D-06
   147  1.4600000000000D+00 -6.1021114223514D-07 -5.7401344198955D-08
   148  1.4700000000000D+00 -7.7418180616832D-07 -7.2825737277855D-08
   149  1.4800000000000D+00  0.0000000000000D+00  0.0000000000000D+00
   150  1.4900000000000D+00  0.0000000000000D+00  0.0000000000000D+00
   151  1.5000000000000D+00  0.0000000000000D+00  0.0000000000000D+00
   152  1.5100000000000D+00  0.0000000000000D+00  0.0000000000000D+00
   153  1.5200000000000D+00  0.0000000000000D+00  0.0000000000000D+00
   154  1.5300000000000D+00  0.0000000000000D+00  0.0000000000000D+00
   155  1.5400000000000D+00  0.0000000000000D+00  0.0000000000000D+00
   156  1.5500000000000D+00  0.0000000000000D+00  0.0000000000000D+00
   157  1.5600000000000D+00  0.0000000000000D+00  0.0000000000000D+00
   158  1.5700000000000D+00  0.0000000000000D+00  0.0000000000000D+00
   159  1.5800000000000D+00  0.0000000000000D+00  0.0000000000000D+00
   160  1.5900000000000D+00  0.0000000000000D+00  0.0000000000000D+00
   161  1.6000000000000D+00  0.0000000000000D+00  0.0000000000000D+00
   162  1.6100000000000D+00  0.0000000000000D+00  0.0000000000000D+00
   163  1.6200000000000D+00  0.0000000000000D+00  0.0000000000000D+00
   164  1.6300000000000D+00  0.0000000000000D+00  0.0000000000000D+00
   165  1.6400000000000D+00  0.0000000000000D+00  0.0000000000000D+00
   166  1.6500000000000D+00  0.0000000000000D+00  0.0000000000000D+00
   167  1.6600000000000D+00  0.0000000000000D+00  0.0000000000000D+00
   168  1.6700000000000D+00  0.0000000000000D+00  0.0000000000000D+00
   169  1.6800000000000D+00  0.0000000000000D+00  0.0000000000000D+00
   170  1.6900000000000D+00  0.0000000000000D+00  0.0000000000000D+00
   171  1.7000000000000D+00  0.0000000000000D+00  0.0000000000000D+00
   172  1.7100000000000D+00  0.0000000000000D+00  0.0000000000000D+00
   173  1.7200000000000D+00  0.0000000000000D+00  0.0000000000000D+00
   174  1.7300000000000D+00  0.0000000000000D+00  0.0000000000000D+00
   175  1.7400000000000D+00  0.0000000000000D+00  0.0000000000000D+00
   176  1.7500000000000D+00  0.0000000000000D+00  0.0000000000000D+00
   177  1.7600000000000D+00  0.0000000000000D+00  0.0000000000000D+00
   178  1.7700000000000D+00  0.0000000000000D+00  0.0000000000000D+00
   179  1.7800000000000D+00  0.0000000000000D+00  0.0000000000000D+00
   180  1.7900000000000D+00  0.0000000000000D+00  0.0000000000000D+00
   181  1.8000000000000D+00  0.0000000000000D+00  0.0000000000000D+00
   182  1.8100000000000D+00  0.0000000000000D+00  0.0000000000000D+00
   183  1.8200000000000D+00  0.0000000000000D+00  0.0000000000000D+00
   184  1.8300000000000D+00  0.0000000000000D+00  0.0000000000000D+00
   185  1.8400000000000D+00  0.0000000000000D+00  0.0000000000000D+00
   186  1.8500000000000D+00  0.0000000000000D+00  0.0000000000000D+00
   187  1.8600000000000D+00  0.0000000000000D+00  0.0000000000000D+00
   188  1.8700000000000D+00  0.0000000000000D+00  0.0000000000000D+00
   189  1.8800000000000D+00  0.0000000000000D+00  0.0000000000000D+00
   190  1.8900000000000D+00  0.0000000000000D+00  0.0000000000000D+00
   191  1.9000000000000D+00  0.0000000000000D+00  0.0000000000000D+00
   192  1.9100000000000D+00  0.0000000000000D+00  0.0000000000000D+00
   193  1.9200000000000D+00  0.0000000000000D+00  0.0000000000000D+00
   194  1.9300000000000D+00  0.0000000000000D+00  0.0000000000000D+00
   195  1.9400000000000D+00  0.0000000000000D+00  0.0000000000000D+00
   196  1.9500000000000D+00  0.0000000000000D+00  0.0000000000000D+00
   197  1.9600000000000D+00  0.0000000000000D+00  0.0000000000000D+00
   198  1.9700000000000D+00  0.0000000000000D+00  0.0000000000000D+00
   199  1.9800000000000D+00  0.0000000000000D+00  0.0000000000000D+00
   200  1.9900000000000D+00  0.0000000000000D+00  0.0000000000000D+00
   201  2.0000000000000D+00  0.0000000000000D+00  0.0000000000000D+00
   202  2.0100000000000D+00  0.0000000000000D+00  0.0000000000000D+00
   203  2.0200000000000D+00  0.0000000000000D+00  0.0000000000000D+00
   204  2.0300000000000D+00  0.0000000000000D+00  0.0000000000000D+00
   205  2.0400000000000D+00  0.0000000000000D+00  0.0000000000000D+00
   206  2.0500000000000D+00  0.0000000000000D+00  0.0000000000000D+00
   207  2.0600000000000D+00  0.0000000000000D+00  0.0000000000000D+00
   208  2.0700000000000D+00  0.0000000000000D+00  0.0000000000000D+00
   209  2.0800000000000D+00  0.0000000000000D+00  0.0000000000000D+00
   210  2.0900000000000D+00  0.0000000000000D+00  0.0000000000000D+00
   211  2.1000000000000D+00  0.0000000000000D+00  0.0000000000000D+00
   212  2.1100000000000D+00  0.0000000000000D+00  0.0000000000000D+00
   213  2.1200000000000D+00  0.0000000000000D+00  0.0000000000000D+00
   214  2.1300000000000D+00  0.0000000000000D+00  0.0000000000000D+00
   215  2.1400000000000D+00  0.0000000000000D+00  0.0000000000000D+00
   216  2.1500000000000D+00  0.0000000000000D+00  0.0000000000000D+00
   217  2.1600000000000D+00  0.0000000000000D+00  0.0000000000000D+00
   218  2.1700000000000D+00  0.0000000000000D+00  0.0000000000000D+00
   219  2.1800000000000D+00  0.0000000000000D+00  0.0000000000000D+00
   220  2.1900000000000D+00  0.0000000000000D+00  0.0000000000000D+00
   221  2.2000000000000D+00  0.0000000000000D+00  0.0000000000000D+00
   222  2.2100000000000D+00  0.0000000000000D+00  0.0000000000000D+00
   223  2.2200000000000D+00  0.0000000000000D+00  0.0000000000000D+00
   224  2.2300000000000D+00  0.0000000000000D+00  0.0000000000000D+00
   225  2.2400000000000D+00  0.0000000000000D+00  0.0000000000000D+00
   226  2.2500000000000D+00  0.0000000000000D+00  0.0000000000000D+00
   227  2.2600000000000D+00  0.0000000000000D+00  0.0000000000000D+00
   228  2.2700000000000D+00  0.0000000000000D+00  0.0000000000000D+00
   229  2.2800000000000D+00  0.0000000000000D+00  0.0000000000000D+00
   230  2.2900000000000D+00  0.0000000000000D+00  0.0000000000000D+00
   231  2.3000000000000D+00  0.0000000000000D+00  0.0000000000000D+00
   232  2.3100000000000D+00  0.0000000000000D+00  0.0000000000000D+00
   233  2.3200000000000D+00  0.0000000000000D+00  0.0000000000000D+00
   234  2.3300000000000D+00  0.0000000000000D+00  0.0000000000000D+00
   235  2.3400000000000D+00  0.0000000000000D+00  0.0000000000000D+00
   236  2.3500000000000D+00  0.0000000000000D+00  0.0000000000000D+00
   237  2.3600000000000D+00  0.0000000000000D+00  0.0000000000000D+00
   238  2.3700000000000D+00  0.0000000000000D+00  0.0000000000000D+00
   239  2.3800000000000D+00  0.0000000000000D+00  0.0000000000000D+00
   240  2.3900000000000D+00  0.0000000000000D+00  0.0000000000000D+00
   241  2.4000000000000D+00  0.0000000000000D+00  0.0000000000000D+00
   242  2.4100000000000D+00  0.0000000000000D+00  0.0000000000000D+00
   243  2.4200000000000D+00  0.0000000000000D+00  0.0000000000000D+00
   244  2.4300000000000D+00  0.0000000000000D+00  0.0000000000000D+00
   245  2.4400000000000D+00  0.0000000000000D+00  0.0000000000000D+00
   246  2.4500000000000D+00  0.0000000000000D+00  0.0000000000000D+00
   247  2.4600000000000D+00  0.0000000000000D+00  0.0000000000000D+00
   248  2.4700000000000D+00  0.0000000000000D+00  0.0000000000000D+00
   249  2.4800000000000D+00  0.0000000000000D+00  0.0000000000000D+00
   250  2.4900000000000D+00  0.0000000000000D+00  0.0000000000000D+00
   251  2.5000000000000D+00  0.0000000000000D+00  0.0000000000000D+00
   252  2.5100000000000D+00  0.0000000000000D+00  0.0000000000000D+00
   253  2.5200000000000D+00  0.0000000000000D+00  0.0000000000000D+00
   254  2.5300000000000D+00  0.0000000000000D+00  0.0000000000000D+00
   255  2.5400000000000D+00  0.0000000000000D+00  0.0000000000000D+00
   256  2.5500000000000D+00  0.0000000000000D+00  0.0000000000000D+00
   257  2.5600000000000D+00  0.0000000000000D+00  0.0000000000000D+00
   258  2.5700000000000D+00  0.0000000000000D+00  0.0000000000000D+00
   259  2.5800000000000D+00  0.0000000000000D+00  0.0000000000000D+00
   260  2.5900000000000D+00  0.0000000000000D+00  0.0000000000000D+00
   261  2.6000000000000D+00  0.0000000000000D+00  0.0000000000000D+00
   262  2.6100000000000D+00  0.0000000000000D+00  0.0000000000000D+00
   263  2.6200000000000D+00  0.0000000000000D+00  0.0000000000000D+00
   264  2.6300000000000D+00  0.0000000000000D+00  0.0000000000000D+00
   265  2.6400000000000D+00  0.0000000000000D+00  0.0000000000000D+00
   266  2.6500000000000D+00  0.0000000000000D+00  0.0000000000000D+00
   267  2.6600000000000D+00  0.0000000000000D+00  0.0000000000000D+00
   268  2.6700000000000D+00  0.0000000000000D+00  0.0000000000000D+00
   269  2.6800000000000D+00  0.0000000000000D+00  0.0000000000000D+00
   270  2.6900000000000D+00  0.0000000000000D+00  0.0000000000000D+00
   271  2.7000000000000D+00  0.0000000000000D+00  0.0000000000000D+00
   272  2.7100000000000D+00  0.0000000000000D+00  0.0000000000000D+00
   273  2.7200000000000D+00  0.0000000000000D+00  0.0000000000000D+00
   274  2.7300000000000D+00  0.0000000000000D+00  0.0000000000000D+00
   275  2.7400000000000D+00  0.0000000000000D+00  0.0000000000000D+00
   276  2.7500000000000D+00  0.0000000000000D+00  0.0000000000000D+00
   277  2.7600000000000D+00  0.0000000000000D+00  0.0000000000000D+00
   278  2.7700000000000D+00  0.0000000000000D+00  0.0000000000000D+00
   279  2.7800000000000D+00  0.0000000000000D+00  0.0000000000000D+00
   280  2.7900000000000D+00  0.0000000000000D+00  0.0000000000000D+00
   281  2.8000000000000D+00  0.0000000000000D+00  0.0000000000000D+00
   282  2.8100000000000D+00  0.0000000000000D+00  0.0000000000000D+00
   283  2.8200000000000D+00  0.0000000000000D+00  0.0000000000000D+00
   284  2.8300000000000D+00  0.0000000000000D+00  0.0000000000000D+00
   285  2.8400000000000D+00  0.0000000000000D+00  0.0000000000000D+00
   286  2.8500000000000D+00  0.0000000000000D+00  0.0000000000000D+00
   287  2.8600000000000D+00  0.0000000000000D+00  0.0000000000000D+00
   288  2.8700000000000D+00  0.0000000000000D+00  0.0000000000000D+00
   289  2.8800000000000D+00  0.0000000000000D+00  0.0000000000000D+00
   290  2.8900000000000D+00  0.0000000000000D+00  0.0000000000000D+00
   291  2.9000000000000D+00  0.0000000000000D+00  0.0000000000000D+00
   292  2.9100000000000D+00  0.0000000000000D+00  0.0000000000000D+00
   293  2.9200000000000D+00  0.0000000000000D+00  0.0000000000000D+00
   294  2.9300000000000D+00  0.0000000000000D+00  0.0000000000000D+00
   295  2.9400000000000D+00  0.0000000000000D+00  0.0000000000000D+00
   296  2.9500000000000D+00  0.0000000000000D+00  0.0000000000000D+00
   297  2.9600000000000D+00  0.0000000000000D+00  0.0000000000000D+00
   298  2.9700000000000D+00  0.0000000000000D+00  0.0000000000000D+00
   299  2.9800000000000D+00  0.0000000000000D+00  0.0000000000000D+00
   300  2.9900000000000D+00  0.0000000000000D+00  0.0000000000000D+00
   301  3.0000000000000D+00  0.0000000000000D+00  0.0000000000000D+00
   302  3.0100000000000D+00  0.0000000000000D+00  0.0000000000000D+00
   303  3.0200000000000D+00  0.0000000000000D+00  0.0000000000000D+00
   304  3.0300000000000D+00  0.0000000000000D+00  0.0000000000000D+00
   305  3.0400000000000D+00  0.0000000000000D+00  0.0000000000000D+00
   306  3.0500000000000D+00  0.0000000000000D+00  0.0000000000000D+00
   307  3.0600000000000D+00  0.0000000000000D+00  0.0000000000000D+00
   308  3.0700000000000D+00  0.0000000000000D+00  0.0000000000000D+00
   309  3.0800000000000D+00  0.0000000000000D+00  0.0000000000000D+00
   310  3.0900000000000D+00  0.0000000000000D+00  0.0000000000000D+00
   311  3.1000000000000D+00  0.0000000000000D+00  0.0000000000000D+00
   312  3.1100000000000D+00  0.0000000000000D+00  0.0000000000000D+00
   313  3.1200000000000D+00  0.0000000000000D+00  0.0000000000000D+00
   314  3.1300000000000D+00  0.0000000000000D+00  0.0000000000000D+00
   315  3.1400000000000D+00  0.0000000000000D+00  0.0000000000000D+00
   316  3.1500000000000D+00  0.0000000000000D+00  0.0000000000000D+00
   317  3.1600000000000D+00  0.0000000000000D+00  0.0000000000000D+00
   318  3.1700000000000D+00  0.0000000000000D+00  0.0000000000000D+00
   319  3.1800000000000D+00  0.0000000000000D+00  0.0000000000000D+00
   320  3.1900000000000D+00  0.0000000000000D+00  0.0000000000000D+00
   321  3.2000000000000D+00  0.0000000000000D+00  0.0000000000000D+00
   322  3.2100000000000D+00  0.0000000000000D+00  0.0000000000000D+00
   323  3.2200000000000D+00  0.0000000000000D+00  0.0000000000000D+00
   324  3.2300000000000D+00  0.0000000000000D+00  0.0000000000000D+00
   325  3.2400000000000D+00  0.0000000000000D+00  0.0000000000000D+00
   326  3.2500000000000D+00  0.0000000000000D+00  0.0000000000000D+00
   327  3.2600000000000D+00  0.0000000000000D+00  0.0000000000000D+00
   328  3.2700000000000D+00  0.0000000000000D+00  0.0000000000000D+00
   329  3.2800000000000D+00  0.0000000000000D+00  0.0000000000000D+00
   330  3.2900000000000D+00  0.0000000000000D+00  0.0000000000000D+00
   331  3.3000000000000D+00  0.0000000000000D+00  0.0000000000000D+00
   332  3.3100000000000D+00  0.0000000000000D+00  0.0000000000000D+00
   333  3.3200000000000D+00  0.0000000000000D+00  0.0000000000000D+00
   334  3.3300000000000D+00  0.0000000000000D+00  0.0000000000000D+00
   335  3.3400000000000D+00  0.0000000000000D+00  0.0000000000000D+00
   336  3.3500000000000D+00  0.0000000000000D+00  0.0000000000000D+00
   337  3.3600000000000D+00  0.0000000000000D+00  0.0000000000000D+00
   338  3.3700000000000D+00  0.0000000000000D+00  0.0000000000000D+00
   339  3.3800000000000D+00  0.0000000000000D+00  0.0000000000000D+00
   340  3.3900000000000D+00  0.0000000000000D+00  0.0000000000000D+00
   341  3.4000000000000D+00  0.0000000000000D+00  0.0000000000000D+00
   342  3.4100000000000D+00  0.0000000000000D+00  0.0000000000000D+00
   343  3.4200000000000D+00  0.0000000000000D+00  0.0000000000000D+00
   344  3.4300000000000D+00  0.0000000000000D+00  0.0000000000000D+00
   345  3.4400000000000D+00  0.0000000000000D+00  0.0000000000000D+00
   346  3.4500000000000D+00  0.0000000000000D+00  0.0000000000000D+00
   347  3.4600000000000D+00  0.0000000000000D+00  0.0000000000000D+00
   348  3.4700000000000D+00  0.0000000000000D+00  0.0000000000000D+00
   349  3.4800000000000D+00  0.0000000000000D+00  0.0000000000000D+00
   350  3.4900000000000D+00  0.0000000000000D+00  0.0000000000000D+00
   351  3.5000000000000D+00  0.0000000000000D+00  0.0000000000000D+00
   352  3.5100000000000D+00  0.0000000000000D+00  0.0000000000000D+00
   353  3.5200000000000D+00  0.0000000000000D+00  0.0000000000000D+00
   354  3.5300000000000D+00  0.0000000000000D+00  0.0000000000000D+00
   355  3.5400000000000D+00  0.0000000000000D+00  0.0000000000000D+00
   356  3.5500000000000D+00  0.0000000000000D+00  0.0000000000000D+00
   357  3.5600000000000D+00  0.0000000000000D+00  0.0000000000000D+00
   358  3.5700000000000D+00  0.0000000000000D+00  0.0000000000000D+00
   359  3.5800000000000D+00  0.0000000000000D+00  0.0000000000000D+00
   360  3.5900000000000D+00  0.0000000000000D+00  0.0000000000000D+00
   361  3.6000000000000D+00  0.0000000000000D+00  0.0000000000000D+00
   362  3.6100000000000D+00  0.0000000000000D+00  0.0000000000000D+00
   363  3.6200000000000D+00  0.0000000000000D+00  0.0000000000000D+00
   364  3.6300000000000D+00  0.0000000000000D+00  0.0000000000000D+00
   365  3.6400000000000D+00  0.0000000000000D+00  0.0000000000000D+00
   366  3.6500000000000D+00  0.0000000000000D+00  0.0000000000000D+00
   367  3.6600000000000D+00  0.0000000000000D+00  0.0000000000000D+00
   368  3.6700000000000D+00  0.0000000000000D+00  0.0000000000000D+00
   369  3.6800000000000D+00  0.0000000000000D+00  0.0000000000000D+00
   370  3.6900000000000D+00  0.0000000000000D+00  0.0000000000000D+00
   371  3.7000000000000D+00  0.0000000000000D+00  0.0000000000000D+00
   372  3.7100000000000D+00  0.0000000000000D+00  0.0000000000000D+00
   373  3.7200000000000D+00  0.0000000000000D+00  0.0000000000000D+00
   374  3.7300000000000D+00  0.0000000000000D+00  0.0000000000000D+00
   375  3.7400000000000D+00  0.0000000000000D+00  0.0000000000000D+00
   376  3.7500000000000D+00  0.0000000000000D+00  0.0000000000000D+00
   377  3.7600000000000D+00  0.0000000000000D+00  0.0000000000000D+00
   378  3.7700000000000D+00  0.0000000000000D+00  0.0000000000000D+00
   379  3.7800000000000D+00  0.0000000000000D+00  0.0000000000000D+00
   380  3.7900000000000D+00  0.0000000000000D+00  0.0000000000000D+00
   381  3.8000000000000D+00  0.0000000000000D+00  0.0000000000000D+00
   382  3.8100000000000D+00  0.0000000000000D+00  0.0000000000000D+00
   383  3.8200000000000D+00  0.0000000000000D+00  0.0000000000000D+00
   384  3.8300000000000D+00  0.0000000000000D+00  0.0000000000000D+00
   385  3.8400000000000D+00  0.0000000000000D+00  0.0000000000000D+00
   386  3.8500000000000D+00  0.0000000000000D+00  0.0000000000000D+00
   387  3.8600000000000D+00  0.0000000000000D+00  0.0000000000000D+00
   388  3.8700000000000D+00  0.0000000000000D+00  0.0000000000000D+00
   389  3.8800000000000D+00  0.0000000000000D+00  0.0000000000000D+00
   390  3.8900000000000D+00  0.0000000000000D+00  0.0000000000000D+00
   391  3.9000000000000D+00  0.0000000000000D+00  0.0000000000000D+00
   392  3.9100000000000D+00  0.0000000000000D+00  0.0000000000000D+00
   393  3.9200000000000D+00  0.0000000000000D+00  0.0000000000000D+00
   394  3.9300000000000D+00  0.0000000000000D+00  0.0000000000000D+00
   395  3.9400000000000D+00  0.0000000000000D+00  0.0000000000000D+00
   396  3.9500000000000D+00  0.0000000000000D+00  0.0000000000000D+00
   397  3.9600000000000D+00  0.0000000000000D+00  0.0000000000000D+00
   398  3.9700000000000D+00  0.0000000000000D+00  0.0000000000000D+00
   399  3.9800000000000D+00  0.0000000000000D+00  0.0000000000000D+00
   400  3.9900000000000D+00  0.0000000000000D+00  0.0000000000000D+00
   401  4.0000000000000D+00  0.0000000000000D+00  0.0000000000000D+00
   402  4.0100000000000D+00  0.0000000000000D+00  0.0000000000000D+00
   403  4.0200000000000D+00  0.0000000000000D+00  0.0000000000000D+00
   404  4.0300000000000D+00  0.0000000000000D+00  0.0000000000000D+00
   405  4.0400000000000D+00  0.0000000000000D+00  0.0000000000000D+00
   406  4.0500000000000D+00  0.0000000000000D+00  0.0000000000000D+00
   407  4.0600000000000D+00  0.0000000000000D+00  0.0000000000000D+00
   408  4.0700000000000D+00  0.0000000000000D+00  0.0000000000000D+00
   409  4.0800000000000D+00  0.0000000000000D+00  0.0000000000000D+00
   410  4.0900000000000D+00  0.0000000000000D+00  0.0000000000000D+00
   411  4.1000000000000D+00  0.0000000000000D+00  0.0000000000000D+00
   412  4.1100000000000D+00  0.0000000000000D+00  0.0000000000000D+00
   413  4.1200000000000D+00  0.0000000000000D+00  0.0000000000000D+00
   414  4.1300000000000D+00  0.0000000000000D+00  0.0000000000000D+00
   415  4.1400000000000D+00  0.0000000000000D+00  0.0000000000000D+00
   416  4.1500000000000D+00  0.0000000000000D+00  0.0000000000000D+00
   417  4.1600000000000D+00  0.0000000000000D+00  0.0000000000000D+00
   418  4.1700000000000D+00  0.0000000000000D+00  0.0000000000000D+00
   419  4.1800000000000D+00  0.0000000000000D+00  0.0000000000000D+00
   420  4.1900000000000D+00  0.0000000000000D+00  0.0000000000000D+00
   421  4.2000000000000D+00  0.0000000000000D+00  0.0000000000000D+00
   422  4.2100000000000D+00  0.0000000000000D+00  0.0000000000000D+00