Ca    ONCVPSP-3.3.0  r_core=   1.45885   1.45885   1.85192
     20.0000     10.0000      220117    zatom,zion,pspd
     8      11   2     4   400     0    pspcod,pspxc,lmax,lloc,mmax,r2well
  3.99000000  0.00000000  0.00000000    rchrg fchrg qchrg
     2     2     2     0     0    nproj
     1     1           extension_switch
   0                         1.0063789350054D+01  9.7239096529789D-01
     1  0.0000000000000D+00 -3.4656166825187D-10  1.4396392411520D-09
     2  1.0000000000000D-02  7.0845407199890D-02 -3.9351288969301D-02
     3  2.0000000000000D-02  1.4153261703240D-01 -7.8451072195224D-02
     4  3.0000000000000D-02  2.1190411569341D-01 -1.1704994554071D-01
     5  4.0000000000000D-02  2.8180374996265D-01 -1.5490268176994D-01
     6  5.0000000000000D-02  3.5107739122873D-01 -1.9177025359352D-01
     7  6.0000000000000D-02  4.1957358024421D-01 -2.2742177926621D-01
     8  7.0000000000000D-02  4.8714414660042D-01 -2.6163636663735D-01
     9  8.0000000000000D-02  5.5364479725867D-01 -2.9420483299402D-01
    10  9.0000000000000D-02  6.1893566889784D-01 -3.2493127979750D-01
    11  1.0000000000000D-01  6.8288183933344D-01 -3.5363450347097D-01
    12  1.1000000000000D-01  7.4535379382227D-01 -3.8014922572073D-01
    13  1.2000000000000D-01  8.0622784268131D-01 -4.0432712943154D-01
    14  1.3000000000000D-01  8.6538648731176D-01 -4.2603768893263D-01
    15  1.4000000000000D-01  9.2271873241856D-01 -4.4516878634564D-01
    16  1.5000000000000D-01  9.7812034294263D-01 -4.6162710875662D-01
    17  1.6000000000000D-01  1.0314940449670D+00 -4.7533832405922D-01
    18  1.7000000000000D-01  1.0827496706078D+00 -4.8624703644928D-01
    19  1.8000000000000D-01  1.1318042476463D+00 -4.9431652566863D-01
    20  1.9000000000000D-01  1.1785820353875D+00 -4.9952827715190D-01
    21  2.0000000000000D-01  1.2230145089338D+00 -5.0188131318085D-01
    22  2.1000000000000D-01  1.2650402947279D+00 -5.0139133795293D-01
    23  2.2000000000000D-01  1.3046050608400D+00 -4.9808971208407D-01
    24  2.3000000000000D-01  1.3416613660372D+00 -4.9202227445087D-01
    25  2.4000000000000D-01  1.3761684721707D+00 -4.8324803139983D-01
    26  2.5000000000000D-01  1.4080921248497D+00 -4.7183773517856D-01
    27  2.6000000000000D-01  1.4374043077127D+00 -4.5787237494969D-01
    28  2.7000000000000D-01  1.4640829758787D+00 -4.4144160490723D-01
    29  2.8000000000000D-01  1.4881117743360D+00 -4.2264213481151D-01
    30  2.9000000000000D-01  1.5094797471124D+00 -4.0157610867744D-01
    31  3.0000000000000D-01  1.5281810430670D+00 -3.7834949738497D-01
    32  3.1000000000000D-01  1.5442146240429D+00 -3.5307053062727D-01
    33  3.2000000000000D-01  1.5575839809318D+00 -3.2584819287519D-01
    34  3.3000000000000D-01  1.5682968629223D+00 -2.9679080692456D-01
    35  3.4000000000000D-01  1.5763650248355D+00 -2.6600472711914D-01
    36  3.5000000000000D-01  1.5818039970110D+00 -2.3359316252859D-01
    37  3.6000000000000D-01  1.5846328816841D+00 -1.9965514822959D-01
    38  3.7000000000000D-01  1.5848741792098D+00 -1.6428468042025D-01
    39  3.8000000000000D-01  1.5825536468457D+00 -1.2757002842758D-01
    40  3.9000000000000D-01  1.5777001921149D+00 -8.9593233780841D-02
    41  4.0000000000000D-01  1.5703458020368D+00 -5.0429803463847D-02
    42  4.1000000000000D-01  1.5605255087594D+00 -1.0148601268962D-02
    43  4.2000000000000D-01  1.5482773913520D+00  3.1188062098003D-02
    44  4.3000000000000D-01  1.5336426127388D+00  7.3524142821205D-02
    45  4.4000000000000D-01  1.5166654899895D+00  1.1680938764058D-01
    46  4.5000000000000D-01  1.4973935954297D+00  1.6099867656591D-01
    47  4.6000000000000D-01  1.4758778853216D+00  2.0605119694371D-01
    48  4.7000000000000D-01  1.4521728521930D+00  2.5192946414155D-01
    49  4.8000000000000D-01  1.4263366962737D+00  2.9859820686666D-01
    50  4.9000000000000D-01  1.3984315109507D+00  3.4602313764068D-01
    51  5.0000000000000D-01  1.3685234766730D+00  3.9416963116476D-01
    52  5.1000000000000D-01  1.3366830573492D+00  4.4300133519829D-01
    53  5.2000000000000D-01  1.3029851929754D+00  4.9247874010229D-01
    54  5.3000000000000D-01  1.2675094820310D+00  5.4255773434295D-01
    55  5.4000000000000D-01  1.2303403470760D+00  5.9318817398475D-01
    56  5.5000000000000D-01  1.1915671769890D+00  6.4431249451536D-01
    57  5.6000000000000D-01  1.1512844393986D+00  6.9586439322063D-01
    58  5.7000000000000D-01  1.1095917570796D+00  7.4776760976632D-01
    59  5.8000000000000D-01  1.0665939424133D+00  7.9993483164651D-01
    60  5.9000000000000D-01  1.0224009844439D+00  8.5226674973226D-01
    61  6.0000000000000D-01  9.7712798359253D-01  9.0465128731897D-01
    62  6.1000000000000D-01  9.3089502971632D-01  9.5696302383789D-01
    63  6.2000000000000D-01  8.8382701991032D-01  1.0090628318139D+00
    64  6.3000000000000D-01  8.3605341323942D-01  1.0607977427151D+00
    65  6.4000000000000D-01  7.8770792044108D-01  1.1120010541410D+00
    66  6.5000000000000D-01  7.3892812755319D-01  1.1624926873183D+00
    67  6.6000000000000D-01  6.8985505337655D-01  1.2120798002079D+00
    68  6.7000000000000D-01  6.4063264166414D-01  1.2605576577195D+00
    69  6.8000000000000D-01  5.9140718993477D-01  1.3077107566006D+00
    70  6.9000000000000D-01  5.4232671781134D-01  1.3533141986173D+00
    71  7.0000000000000D-01  4.9354027877718D-01  1.3971353016968D+00
    72  7.1000000000000D-01  4.4519722020485D-01  1.4389354348480D+00
    73  7.2000000000000D-01  3.9744639744082D-01  1.4784720589218D+00
    74  7.3000000000000D-01  3.5043534859217D-01  1.5155009517355D+00
    75  7.4000000000000D-01  3.0430943746096D-01  1.5497785927811D+00
    76  7.5000000000000D-01  2.5921097278730D-01  1.5810646797183D+00
    77  7.6000000000000D-01  2.1527831258168D-01  1.6091247461979D+00
    78  7.7000000000000D-01  1.7264496284482D-01  1.6337328482670D+00
    79  7.8000000000000D-01  1.3143868037304D-01  1.6546742847620D+00
    80  7.9000000000000D-01  9.1780589626053D-02  1.6717483156971D+00
    81  8.0000000000000D-01  5.3784323783488D-02  1.6847708417493D+00
    82  8.1000000000000D-01  1.7555200132507D-02  1.6935770075405D+00
    83  8.2000000000000D-01 -1.6810560191925D-02  1.6980236915384D+00
    84  8.3000000000000D-01 -4.9226558350149D-02  1.6979918460485D+00
    85  8.4000000000000D-01 -7.9616880454761D-02  1.6933886519424D+00
    86  8.5000000000000D-01 -1.0791668789922D-01  1.6841494544643D+00
    87  8.6000000000000D-01 -1.3407272717197D-01  1.6702394486495D+00
    88  8.7000000000000D-01 -1.5804375174754D-01  1.6516550855632D+00
    89  8.8000000000000D-01 -1.7980084953644D-01  1.6284251736851D+00
    90  8.9000000000000D-01 -1.9932767036907D-01  1.6006116532946D+00
    91  9.0000000000000D-01 -2.1662054907251D-01  1.5683100256041D+00
    92  9.1000000000000D-01 -2.3168852086029D-01  1.5316494225938D+00
    93  9.2000000000000D-01 -2.4455322697858D-01  1.4907923079693D+00
    94  9.3000000000000D-01 -2.5524870982289D-01  1.4459338043316D+00
    95  9.4000000000000D-01 -2.6382109803950D-01  1.3973006464508D+00
    96  9.5000000000000D-01 -2.7032818343916D-01  1.3451497654125D+00
    97  9.6000000000000D-01 -2.7483889285659D-01  1.2897665132746D+00
    98  9.7000000000000D-01 -2.7743265938542D-01  1.2314625427284D+00
    99  9.8000000000000D-01 -2.7819869863941D-01  1.1705733608487D+00
   100  9.9000000000000D-01 -2.7723519689955D-01  1.1074555805800D+00
   101  1.0000000000000D+00 -2.7464841911021D-01  1.0424838977929D+00
   102  1.0100000000000D+00 -2.7055174570336D-01  9.7604782560709D-01
   103  1.0200000000000D+00 -2.6506464814687D-01  9.0854822119133D-01
   104  1.0300000000000D+00 -2.5831161390493D-01  8.4039364329414D-01
   105  1.0400000000000D+00 -2.5042103216871D-01  7.7199658136180D-01
   106  1.0500000000000D+00 -2.4152405220419D-01  7.0376959901309D-01
   107  1.0600000000000D+00 -2.3175342658005D-01  6.3612143630280D-01
   108  1.0700000000000D+00 -2.2124235170858D-01  5.6945311592678D-01
   109  1.0800000000000D+00 -2.1012331820332D-01  5.0415409887932D-01
   110  1.0900000000000D+00 -1.9852698339789D-01  4.4059853456670D-01
   111  1.1000000000000D+00 -1.8658107817162D-01  3.7914164970486D-01
   112  1.1100000000000D+00 -1.7440935970027D-01  3.2011631844231D-01
   113  1.1200000000000D+00 -1.6213062120438D-01  2.6382985416080D-01
   114  1.1300000000000D+00 -1.4985776893251D-01  2.1056106033821D-01
   115  1.1400000000000D+00 -1.3769697585923D-01  1.6055757506333D-01
   116  1.1500000000000D+00 -1.2574692046030D-01  1.1403353965123D-01
   117  1.1600000000000D+00 -1.1409811778870D-01  7.1167617565462D-02
   118  1.1700000000000D+00 -1.0283234871227D-01  3.2101384766126D-02
   119  1.1800000000000D+00 -9.2022192224429D-02 -3.0618909441613D-03
   120  1.1900000000000D+00 -8.1730663902309D-02 -3.4258070883113D-02
   121  1.2000000000000D+00 -7.2010962288825D-02 -6.1462560941032D-02
   122  1.2100000000000D+00 -6.2906323457152D-02 -8.4690321403702D-02
   123  1.2200000000000D+00 -5.4449982868905D-02 -1.0399547533630D-01
   124  1.2300000000000D+00 -4.6665241505488D-02 -1.1947052774114D-01
   125  1.2400000000000D+00 -3.9565631998498D-02 -1.3124521242407D-01
   126  1.2500000000000D+00 -3.3155179822635D-02 -1.3948498599631D-01
   127  1.2600000000000D+00 -2.7428752032425D-02 -1.4438919816761D-01
   128  1.2700000000000D+00 -2.2372483918897D-02 -1.4618897721276D-01
   129  1.2800000000000D+00 -1.7964283858984D-02 -1.4514481912576D-01
   130  1.2900000000000D+00 -1.4174373465582D-02 -1.4154408162840D-01
   131  1.3000000000000D+00 -1.0965984419986D-02 -1.3569777192754D-01
   132  1.3100000000000D+00 -8.2957185618311D-03 -1.2793905186904D-01
   133  1.3200000000000D+00 -6.1147464154534D-03 -1.1861762333223D-01
   134  1.3300000000000D+00 -4.3706770902945D-03 -1.0809079540612D-01
   135  1.3400000000000D+00 -3.0096400877395D-03 -9.6713986509421D-02
   136  1.3500000000000D+00 -1.9779763705409D-03 -8.4833291726502D-02
   137  1.3600000000000D+00 -1.2230313004810D-03 -7.2782666035840D-02
   138  1.3700000000000D+00 -6.9423797519182D-04 -6.0879578687730D-02
   139  1.3800000000000D+00 -3.4408478450741D-04 -4.9421211352067D-02
   140  1.3900000000000D+00 -1.2903206856911D-04 -3.8680853851307D-02
   141  1.4000000000000D+00 -1.0347175937151D-05 -2.8904634652302D-02
   142  1.4100000000000D+00  4.5182218470560D-05 -2.0310982082677D-02
   143  1.4200000000000D+00  6.4471356437587D-05 -1.3080822384062D-02
   144  1.4300000000000D+00  6.6576727284132D-05 -7.3251626127234D-03
   145  1.4400000000000D+00  6.7240336672860D-05 -3.2447981810721D-03
   146  1.4500000000000D+00  7.6577706560665D-05 -9.9595907276070D-04
   147  1.4600000000000D+00  6.8934868623352D-05 -1.2948039328368D-04
   148  1.4700000000000D+00  2.6007087015013D-05  3.3326675247719D-05
   149  1.4800000000000D+00 -5.8793643343515D-06 -1.3767930699902D-05
   150  1.4900000000000D+00 -4.3226697051458D-06 -1.3300418953646D-05
   151  1.5000000000000D+00  1.6082330003043D-06  2.6009962636569D-06
   152  1.5100000000000D+00  5.3942458716957D-07  1.0255792275327D-06
   153  1.5200000000000D+00 -2.0440114143903D-07  5.1648389679687D-07
   154  1.5300000000000D+00 -4.9714554337052D-09  1.2561948808480D-08
   155  1.5400000000000D+00  0.0000000000000D+00  0.0000000000000D+00
   156  1.5500000000000D+00  0.0000000000000D+00  0.0000000000000D+00
   157  1.5600000000000D+00  0.0000000000000D+00  0.0000000000000D+00
   158  1.5700000000000D+00  0.0000000000000D+00  0.0000000000000D+00
   159  1.5800000000000D+00  0.0000000000000D+00  0.0000000000000D+00
   160  1.5900000000000D+00  0.0000000000000D+00  0.0000000000000D+00
   161  1.6000000000000D+00  0.0000000000000D+00  0.0000000000000D+00
   162  1.6100000000000D+00  0.0000000000000D+00  0.0000000000000D+00
   163  1.6200000000000D+00  0.0000000000000D+00  0.0000000000000D+00
   164  1.6300000000000D+00  0.0000000000000D+00  0.0000000000000D+00
   165  1.6400000000000D+00  0.0000000000000D+00  0.0000000000000D+00
   166  1.6500000000000D+00  0.0000000000000D+00  0.0000000000000D+00
   167  1.6600000000000D+00  0.0000000000000D+00  0.0000000000000D+00
   168  1.6700000000000D+00  0.0000000000000D+00  0.0000000000000D+00
   169  1.6800000000000D+00  0.0000000000000D+00  0.0000000000000D+00
   170  1.6900000000000D+00  0.0000000000000D+00  0.0000000000000D+00
   171  1.7000000000000D+00  0.0000000000000D+00  0.0000000000000D+00
   172  1.7100000000000D+00  0.0000000000000D+00  0.0000000000000D+00
   173  1.7200000000000D+00  0.0000000000000D+00  0.0000000000000D+00
   174  1.7300000000000D+00  0.0000000000000D+00  0.0000000000000D+00
   175  1.7400000000000D+00  0.0000000000000D+00  0.0000000000000D+00
   176  1.7500000000000D+00  0.0000000000000D+00  0.0000000000000D+00
   177  1.7600000000000D+00  0.0000000000000D+00  0.0000000000000D+00
   178  1.7700000000000D+00  0.0000000000000D+00  0.0000000000000D+00
   179  1.7800000000000D+00  0.0000000000000D+00  0.0000000000000D+00
   180  1.7900000000000D+00  0.0000000000000D+00  0.0000000000000D+00
   181  1.8000000000000D+00  0.0000000000000D+00  0.0000000000000D+00
   182  1.8100000000000D+00  0.0000000000000D+00  0.0000000000000D+00
   183  1.8200000000000D+00  0.0000000000000D+00  0.0000000000000D+00
   184  1.8300000000000D+00  0.0000000000000D+00  0.0000000000000D+00
   185  1.8400000000000D+00  0.0000000000000D+00  0.0000000000000D+00
   186  1.8500000000000D+00  0.0000000000000D+00  0.0000000000000D+00
   187  1.8600000000000D+00  0.0000000000000D+00  0.0000000000000D+00
   188  1.8700000000000D+00  0.0000000000000D+00  0.0000000000000D+00
   189  1.8800000000000D+00  0.0000000000000D+00  0.0000000000000D+00
   190  1.8900000000000D+00  0.0000000000000D+00  0.0000000000000D+00
   191  1.9000000000000D+00  0.0000000000000D+00  0.0000000000000D+00
   192  1.9100000000000D+00  0.0000000000000D+00  0.0000000000000D+00
   193  1.9200000000000D+00  0.0000000000000D+00  0.0000000000000D+00
   194  1.9300000000000D+00  0.0000000000000D+00  0.0000000000000D+00
   195  1.9400000000000D+00  0.0000000000000D+00  0.0000000000000D+00
   196  1.9500000000000D+00  0.0000000000000D+00  0.0000000000000D+00
   197  1.9600000000000D+00  0.0000000000000D+00  0.0000000000000D+00
   198  1.9700000000000D+00  0.0000000000000D+00  0.0000000000000D+00
   199  1.9800000000000D+00  0.0000000000000D+00  0.0000000000000D+00
   200  1.9900000000000D+00  0.0000000000000D+00  0.0000000000000D+00
   201  2.0000000000000D+00  0.0000000000000D+00  0.0000000000000D+00
   202  2.0100000000000D+00  0.0000000000000D+00  0.0000000000000D+00
   203  2.0200000000000D+00  0.0000000000000D+00  0.0000000000000D+00
   204  2.0300000000000D+00  0.0000000000000D+00  0.0000000000000D+00
   205  2.0400000000000D+00  0.0000000000000D+00  0.0000000000000D+00
   206  2.0500000000000D+00  0.0000000000000D+00  0.0000000000000D+00
   207  2.0600000000000D+00  0.0000000000000D+00  0.0000000000000D+00
   208  2.0700000000000D+00  0.0000000000000D+00  0.0000000000000D+00
   209  2.0800000000000D+00  0.0000000000000D+00  0.0000000000000D+00
   210  2.0900000000000D+00  0.0000000000000D+00  0.0000000000000D+00
   211  2.1000000000000D+00  0.0000000000000D+00  0.0000000000000D+00
   212  2.1100000000000D+00  0.0000000000000D+00  0.0000000000000D+00
   213  2.1200000000000D+00  0.0000000000000D+00  0.0000000000000D+00
   214  2.1300000000000D+00  0.0000000000000D+00  0.0000000000000D+00
   215  2.1400000000000D+00  0.0000000000000D+00  0.0000000000000D+00
   216  2.1500000000000D+00  0.0000000000000D+00  0.0000000000000D+00
   217  2.1600000000000D+00  0.0000000000000D+00  0.0000000000000D+00
   218  2.1700000000000D+00  0.0000000000000D+00  0.0000000000000D+00
   219  2.1800000000000D+00  0.0000000000000D+00  0.0000000000000D+00
   220  2.1900000000000D+00  0.0000000000000D+00  0.0000000000000D+00
   221  2.2000000000000D+00  0.0000000000000D+00  0.0000000000000D+00
   222  2.2100000000000D+00  0.0000000000000D+00  0.0000000000000D+00
   223  2.2200000000000D+00  0.0000000000000D+00  0.0000000000000D+00
   224  2.2300000000000D+00  0.0000000000000D+00  0.0000000000000D+00
   225  2.2400000000000D+00  0.0000000000000D+00  0.0000000000000D+00
   226  2.2500000000000D+00  0.0000000000000D+00  0.0000000000000D+00
   227  2.2600000000000D+00  0.0000000000000D+00  0.0000000000000D+00
   228  2.2700000000000D+00  0.0000000000000D+00  0.0000000000000D+00
   229  2.2800000000000D+00  0.0000000000000D+00  0.0000000000000D+00
   230  2.2900000000000D+00  0.0000000000000D+00  0.0000000000000D+00
   231  2.3000000000000D+00  0.0000000000000D+00  0.0000000000000D+00
   232  2.3100000000000D+00  0.0000000000000D+00  0.0000000000000D+00
   233  2.3200000000000D+00  0.0000000000000D+00  0.0000000000000D+00
   234  2.3300000000000D+00  0.0000000000000D+00  0.0000000000000D+00
   235  2.3400000000000D+00  0.0000000000000D+00  0.0000000000000D+00
   236  2.3500000000000D+00  0.0000000000000D+00  0.0000000000000D+00
   237  2.3600000000000D+00  0.0000000000000D+00  0.0000000000000D+00
   238  2.3700000000000D+00  0.0000000000000D+00  0.0000000000000D+00
   239  2.3800000000000D+00  0.0000000000000D+00  0.0000000000000D+00
   240  2.3900000000000D+00  0.0000000000000D+00  0.0000000000000D+00
   241  2.4000000000000D+00  0.0000000000000D+00  0.0000000000000D+00
   242  2.4100000000000D+00  0.0000000000000D+00  0.0000000000000D+00
   243  2.4200000000000D+00  0.0000000000000D+00  0.0000000000000D+00
   244  2.4300000000000D+00  0.0000000000000D+00  0.0000000000000D+00
   245  2.4400000000000D+00  0.0000000000000D+00  0.0000000000000D+00
   246  2.4500000000000D+00  0.0000000000000D+00  0.0000000000000D+00
   247  2.4600000000000D+00  0.0000000000000D+00  0.0000000000000D+00
   248  2.4700000000000D+00  0.0000000000000D+00  0.0000000000000D+00
   249  2.4800000000000D+00  0.0000000000000D+00  0.0000000000000D+00
   250  2.4900000000000D+00  0.0000000000000D+00  0.0000000000000D+00
   251  2.5000000000000D+00  0.0000000000000D+00  0.0000000000000D+00
   252  2.5100000000000D+00  0.0000000000000D+00  0.0000000000000D+00
   253  2.5200000000000D+00  0.0000000000000D+00  0.0000000000000D+00
   254  2.5300000000000D+00  0.0000000000000D+00  0.0000000000000D+00
   255  2.5400000000000D+00  0.0000000000000D+00  0.0000000000000D+00
   256  2.5500000000000D+00  0.0000000000000D+00  0.0000000000000D+00
   257  2.5600000000000D+00  0.0000000000000D+00  0.0000000000000D+00
   258  2.5700000000000D+00  0.0000000000000D+00  0.0000000000000D+00
   259  2.5800000000000D+00  0.0000000000000D+00  0.0000000000000D+00
   260  2.5900000000000D+00  0.0000000000000D+00  0.0000000000000D+00
   261  2.6000000000000D+00  0.0000000000000D+00  0.0000000000000D+00
   262  2.6100000000000D+00  0.0000000000000D+00  0.0000000000000D+00
   263  2.6200000000000D+00  0.0000000000000D+00  0.0000000000000D+00
   264  2.6300000000000D+00  0.0000000000000D+00  0.0000000000000D+00
   265  2.6400000000000D+00  0.0000000000000D+00  0.0000000000000D+00
   266  2.6500000000000D+00  0.0000000000000D+00  0.0000000000000D+00
   267  2.6600000000000D+00  0.0000000000000D+00  0.0000000000000D+00
   268  2.6700000000000D+00  0.0000000000000D+00  0.0000000000000D+00
   269  2.6800000000000D+00  0.0000000000000D+00  0.0000000000000D+00
   270  2.6900000000000D+00  0.0000000000000D+00  0.0000000000000D+00
   271  2.7000000000000D+00  0.0000000000000D+00  0.0000000000000D+00
   272  2.7100000000000D+00  0.0000000000000D+00  0.0000000000000D+00
   273  2.7200000000000D+00  0.0000000000000D+00  0.0000000000000D+00
   274  2.7300000000000D+00  0.0000000000000D+00  0.0000000000000D+00
   275  2.7400000000000D+00  0.0000000000000D+00  0.0000000000000D+00
   276  2.7500000000000D+00  0.0000000000000D+00  0.0000000000000D+00
   277  2.7600000000000D+00  0.0000000000000D+00  0.0000000000000D+00
   278  2.7700000000000D+00  0.0000000000000D+00  0.0000000000000D+00
   279  2.7800000000000D+00  0.0000000000000D+00  0.0000000000000D+00
   280  2.7900000000000D+00  0.0000000000000D+00  0.0000000000000D+00
   281  2.8000000000000D+00  0.0000000000000D+00  0.0000000000000D+00
   282  2.8100000000000D+00  0.0000000000000D+00  0.0000000000000D+00
   283  2.8200000000000D+00  0.0000000000000D+00  0.0000000000000D+00
   284  2.8300000000000D+00  0.0000000000000D+00  0.0000000000000D+00
   285  2.8400000000000D+00  0.0000000000000D+00  0.0000000000000D+00
   286  2.8500000000000D+00  0.0000000000000D+00  0.0000000000000D+00
   287  2.8600000000000D+00  0.0000000000000D+00  0.0000000000000D+00
   288  2.8700000000000D+00  0.0000000000000D+00  0.0000000000000D+00
   289  2.8800000000000D+00  0.0000000000000D+00  0.0000000000000D+00
   290  2.8900000000000D+00  0.0000000000000D+00  0.0000000000000D+00
   291  2.9000000000000D+00  0.0000000000000D+00  0.0000000000000D+00
   292  2.9100000000000D+00  0.0000000000000D+00  0.0000000000000D+00
   293  2.9200000000000D+00  0.0000000000000D+00  0.0000000000000D+00
   294  2.9300000000000D+00  0.0000000000000D+00  0.0000000000000D+00
   295  2.9400000000000D+00  0.0000000000000D+00  0.0000000000000D+00
   296  2.9500000000000D+00  0.0000000000000D+00  0.0000000000000D+00
   297  2.9600000000000D+00  0.0000000000000D+00  0.0000000000000D+00
   298  2.9700000000000D+00  0.0000000000000D+00  0.0000000000000D+00
   299  2.9800000000000D+00  0.0000000000000D+00  0.0000000000000D+00
   300  2.9900000000000D+00  0.0000000000000D+00  0.0000000000000D+00
   301  3.0000000000000D+00  0.0000000000000D+00  0.0000000000000D+00
   302  3.0100000000000D+00  0.0000000000000D+00  0.0000000000000D+00
   303  3.0200000000000D+00  0.0000000000000D+00  0.0000000000000D+00
   304  3.0300000000000D+00  0.0000000000000D+00  0.0000000000000D+00
   305  3.0400000000000D+00  0.0000000000000D+00  0.0000000000000D+00
   306  3.0500000000000D+00  0.0000000000000D+00  0.0000000000000D+00
   307  3.0600000000000D+00  0.0000000000000D+00  0.0000000000000D+00
   308  3.0700000000000D+00  0.0000000000000D+00  0.0000000000000D+00
   309  3.0800000000000D+00  0.0000000000000D+00  0.0000000000000D+00
   310  3.0900000000000D+00  0.0000000000000D+00  0.0000000000000D+00
   311  3.1000000000000D+00  0.0000000000000D+00  0.0000000000000D+00
   312  3.1100000000000D+00  0.0000000000000D+00  0.0000000000000D+00
   313  3.1200000000000D+00  0.0000000000000D+00  0.0000000000000D+00
   314  3.1300000000000D+00  0.0000000000000D+00  0.0000000000000D+00
   315  3.1400000000000D+00  0.0000000000000D+00  0.0000000000000D+00
   316  3.1500000000000D+00  0.0000000000000D+00  0.0000000000000D+00
   317  3.1600000000000D+00  0.0000000000000D+00  0.0000000000000D+00
   318  3.1700000000000D+00  0.0000000000000D+00  0.0000000000000D+00
   319  3.1800000000000D+00  0.0000000000000D+00  0.0000000000000D+00
   320  3.1900000000000D+00  0.0000000000000D+00  0.0000000000000D+00
   321  3.2000000000000D+00  0.0000000000000D+00  0.0000000000000D+00
   322  3.2100000000000D+00  0.0000000000000D+00  0.0000000000000D+00
   323  3.2200000000000D+00  0.0000000000000D+00  0.0000000000000D+00
   324  3.2300000000000D+00  0.0000000000000D+00  0.0000000000000D+00
   325  3.2400000000000D+00  0.0000000000000D+00  0.0000000000000D+00
   326  3.2500000000000D+00  0.0000000000000D+00  0.0000000000000D+00
   327  3.2600000000000D+00  0.0000000000000D+00  0.0000000000000D+00
   328  3.2700000000000D+00  0.0000000000000D+00  0.0000000000000D+00
   329  3.2800000000000D+00  0.0000000000000D+00  0.0000000000000D+00
   330  3.2900000000000D+00  0.0000000000000D+00  0.0000000000000D+00
   331  3.3000000000000D+00  0.0000000000000D+00  0.0000000000000D+00
   332  3.3100000000000D+00  0.0000000000000D+00  0.0000000000000D+00
   333  3.3200000000000D+00  0.0000000000000D+00  0.0000000000000D+00
   334  3.3300000000000D+00  0.0000000000000D+00  0.0000000000000D+00
   335  3.3400000000000D+00  0.0000000000000D+00  0.0000000000000D+00
   336  3.3500000000000D+00  0.0000000000000D+00  0.0000000000000D+00
   337  3.3600000000000D+00  0.0000000000000D+00  0.0000000000000D+00
   338  3.3700000000000D+00  0.0000000000000D+00  0.0000000000000D+00
   339  3.3800000000000D+00  0.0000000000000D+00  0.0000000000000D+00
   340  3.3900000000000D+00  0.0000000000000D+00  0.0000000000000D+00
   341  3.4000000000000D+00  0.0000000000000D+00  0.0000000000000D+00
   342  3.4100000000000D+00  0.0000000000000D+00  0.0000000000000D+00
   343  3.4200000000000D+00  0.0000000000000D+00  0.0000000000000D+00
   344  3.4300000000000D+00  0.0000000000000D+00  0.0000000000000D+00
   345  3.4400000000000D+00  0.0000000000000D+00  0.0000000000000D+00
   346  3.4500000000000D+00  0.0000000000000D+00  0.0000000000000D+00
   347  3.4600000000000D+00  0.0000000000000D+00  0.0000000000000D+00
   348  3.4700000000000D+00  0.0000000000000D+00  0.0000000000000D+00
   349  3.4800000000000D+00  0.0000000000000D+00  0.0000000000000D+00
   350  3.4900000000000D+00  0.0000000000000D+00  0.0000000000000D+00
   351  3.5000000000000D+00  0.0000000000000D+00  0.0000000000000D+00
   352  3.5100000000000D+00  0.0000000000000D+00  0.0000000000000D+00
   353  3.5200000000000D+00  0.0000000000000D+00  0.0000000000000D+00
   354  3.5300000000000D+00  0.0000000000000D+00  0.0000000000000D+00
   355  3.5400000000000D+00  0.0000000000000D+00  0.0000000000000D+00
   356  3.5500000000000D+00  0.0000000000000D+00  0.0000000000000D+00
   357  3.5600000000000D+00  0.0000000000000D+00  0.0000000000000D+00
   358  3.5700000000000D+00  0.0000000000000D+00  0.0000000000000D+00
   359  3.5800000000000D+00  0.0000000000000D+00  0.0000000000000D+00
   360  3.5900000000000D+00  0.0000000000000D+00  0.0000000000000D+00
   361  3.6000000000000D+00  0.0000000000000D+00  0.0000000000000D+00
   362  3.6100000000000D+00  0.0000000000000D+00  0.0000000000000D+00
   363  3.6200000000000D+00  0.0000000000000D+00  0.0000000000000D+00
   364  3.6300000000000D+00  0.0000000000000D+00  0.0000000000000D+00
   365  3.6400000000000D+00  0.0000000000000D+00  0.0000000000000D+00
   366  3.6500000000000D+00  0.0000000000000D+00  0.0000000000000D+00
   367  3.6600000000000D+00  0.0000000000000D+00  0.0000000000000D+00
   368  3.6700000000000D+00  0.0000000000000D+00  0.0000000000000D+00
   369  3.6800000000000D+00  0.0000000000000D+00  0.0000000000000D+00
   370  3.6900000000000D+00  0.0000000000000D+00  0.0000000000000D+00
   371  3.7000000000000D+00  0.0000000000000D+00  0.0000000000000D+00
   372  3.7100000000000D+00  0.0000000000000D+00  0.0000000000000D+00
   373  3.7200000000000D+00  0.0000000000000D+00  0.0000000000000D+00
   374  3.7300000000000D+00  0.0000000000000D+00  0.0000000000000D+00
   375  3.7400000000000D+00  0.0000000000000D+00  0.0000000000000D+00
   376  3.7500000000000D+00  0.0000000000000D+00  0.0000000000000D+00
   377  3.7600000000000D+00  0.0000000000000D+00  0.0000000000000D+00
   378  3.7700000000000D+00  0.0000000000000D+00  0.0000000000000D+00
   379  3.7800000000000D+00  0.0000000000000D+00  0.0000000000000D+00
   380  3.7900000000000D+00  0.0000000000000D+00  0.0000000000000D+00
   381  3.8000000000000D+00  0.0000000000000D+00  0.0000000000000D+00
   382  3.8100000000000D+00  0.0000000000000D+00  0.0000000000000D+00
   383  3.8200000000000D+00  0.0000000000000D+00  0.0000000000000D+00
   384  3.8300000000000D+00  0.0000000000000D+00  0.0000000000000D+00
   385  3.8400000000000D+00  0.0000000000000D+00  0.0000000000000D+00
   386  3.8500000000000D+00  0.0000000000000D+00  0.0000000000000D+00
   387  3.8600000000000D+00  0.0000000000000D+00  0.0000000000000D+00
   388  3.8700000000000D+00  0.0000000000000D+00  0.0000000000000D+00
   389  3.8800000000000D+00  0.0000000000000D+00  0.0000000000000D+00
   390  3.8900000000000D+00  0.0000000000000D+00  0.0000000000000D+00
   391  3.9000000000000D+00  0.0000000000000D+00  0.0000000000000D+00
   392  3.9100000000000D+00  0.0000000000000D+00  0.0000000000000D+00
   393  3.9200000000000D+00  0.0000000000000D+00  0.0000000000000D+00
   394  3.9300000000000D+00  0.0000000000000D+00  0.0000000000000D+00
   395  3.9400000000000D+00  0.0000000000000D+00  0.0000000000000D+00
   396  3.9500000000000D+00  0.0000000000000D+00  0.0000000000000D+00
   397  3.9600000000000D+00  0.0000000000000D+00  0.0000000000000D+00
   398  3.9700000000000D+00  0.0000000000000D+00  0.0000000000000D+00
   399  3.9800000000000D+00  0.0000000000000D+00  0.0000000000000D+00
   400  3.9900000000000D+00  0.0000000000000D+00  0.0000000000000D+00
   1                         3.0498783065296D+00  4.7179906944069D-01
     1  0.0000000000000D+00  2.9608940160797D-09 -7.6145333510746D-09
     2  1.0000000000000D-02  1.9934890474045D-03 -1.3265858566786D-03
     3  2.0000000000000D-02  7.9617372554158D-03 -5.2880934583627D-03
     4  3.0000000000000D-02  1.7868206910659D-02 -1.1830039623087D-02
     5  4.0000000000000D-02  3.1652397091267D-02 -2.0862503735410D-02
     6  5.0000000000000D-02  4.9230430655611D-02 -3.2261439490508D-02
     7  6.0000000000000D-02  7.0495864301757D-02 -4.5870481026800D-02
     8  7.0000000000000D-02  9.5320710202415D-02 -6.1503213754587D-02
     9  8.0000000000000D-02  1.2355665475928D-01 -7.8945872573627D-02
    10  9.0000000000000D-02  1.5503645729510D-01 -9.7960423190075D-02
    11  1.0000000000000D-01  1.8957550905579D-01 -1.1828797601094D-01
    12  1.1000000000000D-01  2.2697353076778D-01 -1.3965247671817D-01
    13  1.2000000000000D-01  2.6701638522208D-01 -1.6176461319629D-01
    14  1.3000000000000D-01  3.0947797996450D-01 -1.8432587508326D-01
    15  1.4000000000000D-01  3.5412223418287D-01 -2.0703269989084D-01
    16  1.5000000000000D-01  4.0070508331331D-01 -2.2958063844148D-01
    17  1.6000000000000D-01  4.4897649474516D-01 -2.5166847231080D-01
    18  1.7000000000000D-01  4.9868246829121D-01 -2.7300221705448D-01
    19  1.8000000000000D-01  5.4956699579888D-01 -2.9329894721417D-01
    20  1.9000000000000D-01  6.0137395539701D-01 -3.1229038240643D-01
    21  2.0000000000000D-01  6.5384891738112D-01 -3.2972617814257D-01