Mg    ONCVPSP-3.3.0  r_core=   1.16056   1.56380
     12.0000     10.0000      220117    zatom,zion,pspd
     8      11   1     4   400     0    pspcod,pspxc,lmax,lloc,mmax,r2well
  3.99000000  0.00000000  0.00000000    rchrg fchrg qchrg
     2     2     0     0     0    nproj
     1     1           extension_switch
   0                         2.2500052853530D+00 -8.0862969213572D-01
     1  0.0000000000000D+00 -2.1745220624148D-08 -1.1471202321367D-09
     2  1.0000000000000D-02  1.2341231334870D-01  3.1878944476805D-02
     3  2.0000000000000D-02  2.4592865209879D-01  6.3763605322374D-02
     4  3.0000000000000D-02  3.6666571116461D-01  9.5659855162163D-02
     5  4.0000000000000D-02  4.8476526663780D-01  1.2757386835662D-01
     6  5.0000000000000D-02  5.9940607751026D-01  1.5951224522759D-01
     7  6.0000000000000D-02  7.0981503674482D-01  1.9148210516166D-01
     8  7.0000000000000D-02  8.1527734773505D-01  2.2349113960486D-01
     9  8.0000000000000D-02  9.1514552394049D-01  2.5554761711017D-01
    10  9.0000000000000D-02  1.0088470357326D+00  2.8766033398024D-01
    11  1.0000000000000D-01  1.0958904586470D+00  3.1983850562975D-01
    12  1.1000000000000D-01  1.1758700106312D+00  3.5209159553522D-01
    13  1.2000000000000D-01  1.2484684017504D+00  3.8442908050398D-01
    14  1.3000000000000D-01  1.3134579573543D+00  4.1686015293118D-01
    15  1.4000000000000D-01  1.3707000140767D+00  4.4939336267823D-01
    16  1.5000000000000D-01  1.4201426263547D+00  4.8203620314765D-01
    17  1.6000000000000D-01  1.4618166585654D+00  5.1479464800048D-01
    18  1.7000000000000D-01  1.4958303735195D+00  5.4767264671607D-01
    19  1.8000000000000D-01  1.5223626611335D+00  5.8067158878430D-01
    20  1.9000000000000D-01  1.5416550808500D+00  6.1378974770719D-01
    21  2.0000000000000D-01  1.5540029171314D+00  6.4702171713199D-01
    22  2.1000000000000D-01  1.5597454685145D+00  6.8035785231030D-01
    23  2.2000000000000D-01  1.5592558067950D+00  7.1378373065192D-01
    24  2.3000000000000D-01  1.5529302535480D+00  7.4727964539796D-01
    25  2.4000000000000D-01  1.5411778261219D+00  7.8082014636500D-01
    26  2.5000000000000D-01  1.5244099043563D+00  8.1437364130450D-01
    27  2.6000000000000D-01  1.5030303625753D+00  8.4790207068470D-01
    28  2.7000000000000D-01  1.4774263990381D+00  8.8136066764462D-01
    29  2.8000000000000D-01  1.4479602772661D+00  9.1469781351172D-01
    30  2.9000000000000D-01  1.4149621708946D+00  9.4785499764118D-01
    31  3.0000000000000D-01  1.3787242764439D+00  9.8076688845713D-01
    32  3.1000000000000D-01  1.3394963272656D+00  1.0133615204939D+00
    33  3.2000000000000D-01  1.2974826076167D+00  1.0455605999909D+00
    34  3.3000000000000D-01  1.2528405291158D+00  1.0772799292349D+00
    35  3.4000000000000D-01  1.2056807935878D+00  1.1084299474213D+00
    36  3.5000000000000D-01  1.1560691273789D+00  1.1389163833710D+00
    37  3.6000000000000D-01  1.1040295335213D+00  1.1686410130466D+00
    38  3.7000000000000D-01  1.0495489705453D+00  1.1975025125182D+00
    39  3.8000000000000D-01  9.9258333114333D-01  1.2253973948762D+00
    40  3.9000000000000D-01  9.3306456113172D-01  1.2522210176426D+00
    41  4.0000000000000D-01  8.7090872999464D-01  1.2778686455167D+00
    42  4.1000000000000D-01  8.0602483943390D-01  1.3022365518715D+00
    43  4.2000000000000D-01  7.3832413638990D-01  1.3252231413048D+00
    44  4.3000000000000D-01  6.6772968243380D-01  1.3467300747900D+00
    45  4.4000000000000D-01  5.9418592263604D-01  1.3666633785779D+00
    46  4.5000000000000D-01  5.1766799423466D-01  1.3849345179874D+00
    47  4.6000000000000D-01  4.3819051876616D-01  1.4014614175959D+00
    48  4.7000000000000D-01  3.5581563075357D-01  1.4161694100985D+00
    49  4.8000000000000D-01  2.7066001139788D-01  1.4289920972289D+00
    50  4.9000000000000D-01  1.8290071668637D-01  1.4398721076167D+00
    51  5.0000000000000D-01  9.2779615480164D-02  1.4487617382541D+00
    52  5.1000000000000D-01  6.0628389645494D-04  1.4556234683396D+00
    53  5.2000000000000D-01 -9.3240762973578D-02  1.4604303366010D+00
    54  5.3000000000000D-01 -1.8831458306283D-01  1.4631661757407D+00
    55  5.4000000000000D-01 -2.8410210387420D-01  1.4638257003300D+00
    56  5.5000000000000D-01 -3.8002820268247D-01  1.4624144472590D+00
    57  5.6000000000000D-01 -4.7546152732565D-01  1.4589485706628D+00
    58  5.7000000000000D-01 -5.6972197281812D-01  1.4534544960298D+00
    59  5.8000000000000D-01 -6.6208968864963D-01  1.4459684409081D+00
    60  5.9000000000000D-01 -7.5181545378181D-01  1.4365358121829D+00
    61  6.0000000000000D-01 -8.3813222155381D-01  1.4252104922721D+00
    62  6.1000000000000D-01 -9.2026760617411D-01  1.4120540286994D+00
    63  6.2000000000000D-01 -9.9745705659975D-01  1.3971347433377D+00
    64  6.3000000000000D-01 -1.0689574432567D+00  1.3805267791030D+00
    65  6.4000000000000D-01 -1.1340607686643D+00  1.3623091030073D+00
    66  6.5000000000000D-01 -1.1921077049456D+00  1.3425644852161D+00
    67  6.6000000000000D-01 -1.2425006597901D+00  1.3213784740776D+00
    68  6.7000000000000D-01 -1.2847160776399D+00  1.2988383870061D+00
    69  6.8000000000000D-01 -1.3183156948071D+00  1.2750323365935D+00
    70  6.9000000000000D-01 -1.3429564855971D+00  1.2500483104115D+00
    71  7.0000000000000D-01 -1.3583990608692D+00  1.2239733216728D+00
    72  7.1000000000000D-01 -1.3645143106362D+00  1.1968926462603D+00
    73  7.2000000000000D-01 -1.3612881173176D+00  1.1688891596506D+00
    74  7.3000000000000D-01 -1.3488240055619D+00  1.1400427850005D+00
    75  7.4000000000000D-01 -1.3273436373813D+00  1.1104300611594D+00
    76  7.5000000000000D-01 -1.2971851063716D+00  1.0801238367113D+00
    77  7.6000000000000D-01 -1.2587990317854D+00  1.0491930933356D+00
    78  7.7000000000000D-01 -1.2127425002943D+00  1.0177028989299D+00
    79  7.8000000000000D-01 -1.1596709499818D+00  9.8571448807835D-01
    80  7.9000000000000D-01 -1.1003281361619D+00  9.5328546465738D-01
    81  8.0000000000000D-01 -1.0355343610501D+00  9.2047011870324D-01
    82  8.1000000000000D-01 -9.6617318815336D-01  8.8731984717972D-01
    83  8.2000000000000D-01 -8.9317689660718D-01  8.5388366603780D-01
    84  8.3000000000000D-01 -8.1751095977263D-01  8.2020879899613D-01
    85  8.4000000000000D-01 -7.4015785552075D-01  7.8634132683899D-01
    86  8.5000000000000D-01 -6.6210053222638D-01  7.5232687975913D-01
    87  8.6000000000000D-01 -5.8430586414491D-01  7.1821135439694D-01
    88  8.7000000000000D-01 -5.0770843229120D-01  6.8404163676058D-01
    89  8.8000000000000D-01 -4.3319496207362D-01  6.4986631216655D-01
    90  8.9000000000000D-01 -3.6158973681236D-01  6.1573634371428D-01
    91  9.0000000000000D-01 -2.9364128710933D-01  5.8170570159451D-01
    92  9.1000000000000D-01 -2.3001063021041D-01  5.4783192671019D-01
    93  9.2000000000000D-01 -1.7126130153813D-01  5.1417661363324D-01
    94  9.3000000000000D-01 -1.1785138313718D-01  4.8080579979570D-01
    95  9.4000000000000D-01 -7.0127691658805D-02  4.4779024997676D-01
    96  9.5000000000000D-01 -2.8322242612376D-02  4.1520562754821D-01
    97  9.6000000000000D-01  7.4489410803379D-03  3.8313254652591D-01
    98  9.7000000000000D-01  3.7184658585296D-02  3.5165650118278D-01
    99  9.8000000000000D-01  6.0995032270589D-02  3.2086767275925D-01
   100  9.9000000000000D-01  7.9095764647625D-02  2.9086061558507D-01
   101  1.0000000000000D+00  9.1800283471097D-02  2.6173382758695D-01
   102  1.0100000000000D+00  9.9509955281230D-02  2.3358921283489D-01
   103  1.0200000000000D+00  1.0270258893161D-01  2.0653144610718D-01
   104  1.0300000000000D+00  1.0191948919914D-01  1.8066725165256D-01
   105  1.0400000000000D+00  9.7751352955781D-02  1.5610461020107D-01
   106  1.0500000000000D+00  9.0823326806000D-02  1.3295190983998D-01
   107  1.0600000000000D+00  8.1779563606275D-02  1.1131705749278D-01
   108  1.0700000000000D+00  7.1267631138931D-02  9.1306569158628D-02
   109  1.0800000000000D+00  5.9923114132948D-02  7.3024653377118D-02
   110  1.0900000000000D+00  4.8354818729161D-02  5.6572320172356D-02
   111  1.1000000000000D+00  3.7130614186838D-02  4.2046457352296D-02
   112  1.1100000000000D+00  2.6765556203521D-02  2.9539226442881D-02
   113  1.1200000000000D+00  1.7707303432263D-02  1.9136589388374D-02
   114  1.1300000000000D+00  1.0322720664032D-02  1.0918566280486D-02
   115  1.1400000000000D+00  4.8357491485846D-03  4.9123782220042D-03
   116  1.1500000000000D+00  1.5836484792234D-03  1.3251916825094D-03
   117  1.1600000000000D+00  3.5253254293650D-04 -2.0625925605222D-05
   118  1.1700000000000D+00  3.0327605767422D-05 -9.1236638701151D-05
   119  1.1800000000000D+00 -2.8644720065847D-06  3.9483678691551D-05
   120  1.1900000000000D+00  8.3495099262007D-07 -2.6875951783824D-06
   121  1.2000000000000D+00  8.9939945883317D-07 -4.1374816002925D-06
   122  1.2100000000000D+00 -9.0776661820862D-07  1.3542010898783D-07
   123  1.2200000000000D+00  0.0000000000000D+00  0.0000000000000D+00
   124  1.2300000000000D+00  0.0000000000000D+00  0.0000000000000D+00
   125  1.2400000000000D+00  0.0000000000000D+00  0.0000000000000D+00
   126  1.2500000000000D+00  0.0000000000000D+00  0.0000000000000D+00
   127  1.2600000000000D+00  0.0000000000000D+00  0.0000000000000D+00
   128  1.2700000000000D+00  0.0000000000000D+00  0.0000000000000D+00
   129  1.2800000000000D+00  0.0000000000000D+00  0.0000000000000D+00
   130  1.2900000000000D+00  0.0000000000000D+00  0.0000000000000D+00
   131  1.3000000000000D+00  0.0000000000000D+00  0.0000000000000D+00
   132  1.3100000000000D+00  0.0000000000000D+00  0.0000000000000D+00
   133  1.3200000000000D+00  0.0000000000000D+00  0.0000000000000D+00
   134  1.3300000000000D+00  0.0000000000000D+00  0.0000000000000D+00
   135  1.3400000000000D+00  0.0000000000000D+00  0.0000000000000D+00
   136  1.3500000000000D+00  0.0000000000000D+00  0.0000000000000D+00
   137  1.3600000000000D+00  0.0000000000000D+00  0.0000000000000D+00
   138  1.3700000000000D+00  0.0000000000000D+00  0.0000000000000D+00
   139  1.3800000000000D+00  0.0000000000000D+00  0.0000000000000D+00
   140  1.3900000000000D+00  0.0000000000000D+00  0.0000000000000D+00
   141  1.4000000000000D+00  0.0000000000000D+00  0.0000000000000D+00
   142  1.4100000000000D+00  0.0000000000000D+00  0.0000000000000D+00
   143  1.4200000000000D+00  0.0000000000000D+00  0.0000000000000D+00
   144  1.4300000000000D+00  0.0000000000000D+00  0.0000000000000D+00
   145  1.4400000000000D+00  0.0000000000000D+00  0.0000000000000D+00
   146  1.4500000000000D+00  0.0000000000000D+00  0.0000000000000D+00
   147  1.4600000000000D+00  0.0000000000000D+00  0.0000000000000D+00
   148  1.4700000000000D+00  0.0000000000000D+00  0.0000000000000D+00
   149  1.4800000000000D+00  0.0000000000000D+00  0.0000000000000D+00
   150  1.4900000000000D+00  0.0000000000000D+00  0.0000000000000D+00
   151  1.5000000000000D+00  0.0000000000000D+00  0.0000000000000D+00
   152  1.5100000000000D+00  0.0000000000000D+00  0.0000000000000D+00
   153  1.5200000000000D+00  0.0000000000000D+00  0.0000000000000D+00
   154  1.5300000000000D+00  0.0000000000000D+00  0.0000000000000D+00
   155  1.5400000000000D+00  0.0000000000000D+00  0.0000000000000D+00
   156  1.5500000000000D+00  0.0000000000000D+00  0.0000000000000D+00
   157  1.5600000000000D+00  0.0000000000000D+00  0.0000000000000D+00
   158  1.5700000000000D+00  0.0000000000000D+00  0.0000000000000D+00
   159  1.5800000000000D+00  0.0000000000000D+00  0.0000000000000D+00
   160  1.5900000000000D+00  0.0000000000000D+00  0.0000000000000D+00
   161  1.6000000000000D+00  0.0000000000000D+00  0.0000000000000D+00
   162  1.6100000000000D+00  0.0000000000000D+00  0.0000000000000D+00
   163  1.6200000000000D+00  0.0000000000000D+00  0.0000000000000D+00
   164  1.6300000000000D+00  0.0000000000000D+00  0.0000000000000D+00
   165  1.6400000000000D+00  0.0000000000000D+00  0.0000000000000D+00
   166  1.6500000000000D+00  0.0000000000000D+00  0.0000000000000D+00
   167  1.6600000000000D+00  0.0000000000000D+00  0.0000000000000D+00
   168  1.6700000000000D+00  0.0000000000000D+00  0.0000000000000D+00
   169  1.6800000000000D+00  0.0000000000000D+00  0.0000000000000D+00
   170  1.6900000000000D+00  0.0000000000000D+00  0.0000000000000D+00
   171  1.7000000000000D+00  0.0000000000000D+00  0.0000000000000D+00
   172  1.7100000000000D+00  0.0000000000000D+00  0.0000000000000D+00
   173  1.7200000000000D+00  0.0000000000000D+00  0.0000000000000D+00
   174  1.7300000000000D+00  0.0000000000000D+00  0.0000000000000D+00
   175  1.7400000000000D+00  0.0000000000000D+00  0.0000000000000D+00
   176  1.7500000000000D+00  0.0000000000000D+00  0.0000000000000D+00
   177  1.7600000000000D+00  0.0000000000000D+00  0.0000000000000D+00
   178  1.7700000000000D+00  0.0000000000000D+00  0.0000000000000D+00
   179  1.7800000000000D+00  0.0000000000000D+00  0.0000000000000D+00
   180  1.7900000000000D+00  0.0000000000000D+00  0.0000000000000D+00
   181  1.8000000000000D+00  0.0000000000000D+00  0.0000000000000D+00
   182  1.8100000000000D+00  0.0000000000000D+00  0.0000000000000D+00
   183  1.8200000000000D+00  0.0000000000000D+00  0.0000000000000D+00
   184  1.8300000000000D+00  0.0000000000000D+00  0.0000000000000D+00
   185  1.8400000000000D+00  0.0000000000000D+00  0.0000000000000D+00
   186  1.8500000000000D+00  0.0000000000000D+00  0.0000000000000D+00
   187  1.8600000000000D+00  0.0000000000000D+00  0.0000000000000D+00
   188  1.8700000000000D+00  0.0000000000000D+00  0.0000000000000D+00
   189  1.8800000000000D+00  0.0000000000000D+00  0.0000000000000D+00
   190  1.8900000000000D+00  0.0000000000000D+00  0.0000000000000D+00
   191  1.9000000000000D+00  0.0000000000000D+00  0.0000000000000D+00
   192  1.9100000000000D+00  0.0000000000000D+00  0.0000000000000D+00
   193  1.9200000000000D+00  0.0000000000000D+00  0.0000000000000D+00
   194  1.9300000000000D+00  0.0000000000000D+00  0.0000000000000D+00
   195  1.9400000000000D+00  0.0000000000000D+00  0.0000000000000D+00
   196  1.9500000000000D+00  0.0000000000000D+00  0.0000000000000D+00
   197  1.9600000000000D+00  0.0000000000000D+00  0.0000000000000D+00
   198  1.9700000000000D+00  0.0000000000000D+00  0.0000000000000D+00
   199  1.9800000000000D+00  0.0000000000000D+00  0.0000000000000D+00
   200  1.9900000000000D+00  0.0000000000000D+00  0.0000000000000D+00
   201  2.0000000000000D+00  0.0000000000000D+00  0.0000000000000D+00
   202  2.0100000000000D+00  0.0000000000000D+00  0.0000000000000D+00
   203  2.0200000000000D+00  0.0000000000000D+00  0.0000000000000D+00
   204  2.0300000000000D+00  0.0000000000000D+00  0.0000000000000D+00
   205  2.0400000000000D+00  0.0000000000000D+00  0.0000000000000D+00
   206  2.0500000000000D+00  0.0000000000000D+00  0.0000000000000D+00
   207  2.0600000000000D+00  0.0000000000000D+00  0.0000000000000D+00
   208  2.0700000000000D+00  0.0000000000000D+00  0.0000000000000D+00
   209  2.0800000000000D+00  0.0000000000000D+00  0.0000000000000D+00
   210  2.0900000000000D+00  0.0000000000000D+00  0.0000000000000D+00
   211  2.1000000000000D+00  0.0000000000000D+00  0.0000000000000D+00
   212  2.1100000000000D+00  0.0000000000000D+00  0.0000000000000D+00
   213  2.1200000000000D+00  0.0000000000000D+00  0.0000000000000D+00
   214  2.1300000000000D+00  0.0000000000000D+00  0.0000000000000D+00
   215  2.1400000000000D+00  0.0000000000000D+00  0.0000000000000D+00
   216  2.1500000000000D+00  0.0000000000000D+00  0.0000000000000D+00
   217  2.1600000000000D+00  0.0000000000000D+00  0.0000000000000D+00
   218  2.1700000000000D+00  0.0000000000000D+00  0.0000000000000D+00
   219  2.1800000000000D+00  0.0000000000000D+00  0.0000000000000D+00
   220  2.1900000000000D+00  0.0000000000000D+00  0.0000000000000D+00
   221  2.2000000000000D+00  0.0000000000000D+00  0.0000000000000D+00
   222  2.2100000000000D+00  0.0000000000000D+00  0.0000000000000D+00
   223  2.2200000000000D+00  0.0000000000000D+00  0.0000000000000D+00
   224  2.2300000000000D+00  0.0000000000000D+00  0.0000000000000D+00
   225  2.2400000000000D+00  0.0000000000000D+00  0.0000000000000D+00
   226  2.2500000000000D+00  0.0000000000000D+00  0.0000000000000D+00
   227  2.2600000000000D+00  0.0000000000000D+00  0.0000000000000D+00
   228  2.2700000000000D+00  0.0000000000000D+00  0.0000000000000D+00
   229  2.2800000000000D+00  0.0000000000000D+00  0.0000000000000D+00
   230  2.2900000000000D+00  0.0000000000000D+00  0.0000000000000D+00
   231  2.3000000000000D+00  0.0000000000000D+00  0.0000000000000D+00
   232  2.3100000000000D+00  0.0000000000000D+00  0.0000000000000D+00
   233  2.3200000000000D+00  0.0000000000000D+00  0.0000000000000D+00
   234  2.3300000000000D+00  0.0000000000000D+00  0.0000000000000D+00
   235  2.3400000000000D+00  0.0000000000000D+00  0.0000000000000D+00
   236  2.3500000000000D+00  0.0000000000000D+00  0.0000000000000D+00
   237  2.3600000000000D+00  0.0000000000000D+00  0.0000000000000D+00
   238  2.3700000000000D+00  0.0000000000000D+00  0.0000000000000D+00
   239  2.3800000000000D+00  0.0000000000000D+00  0.0000000000000D+00
   240  2.3900000000000D+00  0.0000000000000D+00  0.0000000000000D+00
   241  2.4000000000000D+00  0.0000000000000D+00  0.0000000000000D+00
   242  2.4100000000000D+00  0.0000000000000D+00  0.0000000000000D+00
   243  2.4200000000000D+00  0.0000000000000D+00  0.0000000000000D+00
   244  2.4300000000000D+00  0.0000000000000D+00  0.0000000000000D+00
   245  2.4400000000000D+00  0.0000000000000D+00  0.0000000000000D+00
   246  2.4500000000000D+00  0.0000000000000D+00  0.0000000000000D+00
   247  2.4600000000000D+00  0.0000000000000D+00  0.0000000000000D+00
   248  2.4700000000000D+00  0.0000000000000D+00  0.0000000000000D+00
   249  2.4800000000000D+00  0.0000000000000D+00  0.0000000000000D+00
   250  2.4900000000000D+00  0.0000000000000D+00  0.0000000000000D+00
   251  2.5000000000000D+00  0.0000000000000D+00  0.0000000000000D+00
   252  2.5100000000000D+00  0.0000000000000D+00  0.0000000000000D+00
   253  2.5200000000000D+00  0.0000000000000D+00  0.0000000000000D+00
   254  2.5300000000000D+00  0.0000000000000D+00  0.0000000000000D+00
   255  2.5400000000000D+00  0.0000000000000D+00  0.0000000000000D+00
   256  2.5500000000000D+00  0.0000000000000D+00  0.0000000000000D+00
   257  2.5600000000000D+00  0.0000000000000D+00  0.0000000000000D+00
   258  2.5700000000000D+00  0.0000000000000D+00  0.0000000000000D+00
   259  2.5800000000000D+00  0.0000000000000D+00  0.0000000000000D+00
   260  2.5900000000000D+00  0.0000000000000D+00  0.0000000000000D+00
   261  2.6000000000000D+00  0.0000000000000D+00  0.0000000000000D+00
   262  2.6100000000000D+00  0.0000000000000D+00  0.0000000000000D+00
   263  2.6200000000000D+00  0.0000000000000D+00  0.0000000000000D+00
   264  2.6300000000000D+00  0.0000000000000D+00  0.0000000000000D+00
   265  2.6400000000000D+00  0.0000000000000D+00  0.0000000000000D+00
   266  2.6500000000000D+00  0.0000000000000D+00  0.0000000000000D+00
   267  2.6600000000000D+00  0.0000000000000D+00  0.0000000000000D+00
   268  2.6700000000000D+00  0.0000000000000D+00  0.0000000000000D+00
   269  2.6800000000000D+00  0.0000000000000D+00  0.0000000000000D+00
   270  2.6900000000000D+00  0.0000000000000D+00  0.0000000000000D+00
   271  2.7000000000000D+00  0.0000000000000D+00  0.0000000000000D+00
   272  2.7100000000000D+00  0.0000000000000D+00  0.0000000000000D+00
   273  2.7200000000000D+00  0.0000000000000D+00  0.0000000000000D+00
   274  2.7300000000000D+00  0.0000000000000D+00  0.0000000000000D+00
   275  2.7400000000000D+00  0.0000000000000D+00  0.0000000000000D+00
   276  2.7500000000000D+00  0.0000000000000D+00  0.0000000000000D+00
   277  2.7600000000000D+00  0.0000000000000D+00  0.0000000000000D+00
   278  2.7700000000000D+00  0.0000000000000D+00  0.0000000000000D+00
   279  2.7800000000000D+00  0.0000000000000D+00  0.0000000000000D+00
   280  2.7900000000000D+00  0.0000000000000D+00  0.0000000000000D+00
   281  2.8000000000000D+00  0.0000000000000D+00  0.0000000000000D+00
   282  2.8100000000000D+00  0.0000000000000D+00  0.0000000000000D+00
   283  2.8200000000000D+00  0.0000000000000D+00  0.0000000000000D+00
   284  2.8300000000000D+00  0.0000000000000D+00  0.0000000000000D+00
   285  2.8400000000000D+00  0.0000000000000D+00  0.0000000000000D+00
   286  2.8500000000000D+00  0.0000000000000D+00  0.0000000000000D+00
   287  2.8600000000000D+00  0.0000000000000D+00  0.0000000000000D+00
   288  2.8700000000000D+00  0.0000000000000D+00  0.0000000000000D+00
   289  2.8800000000000D+00  0.0000000000000D+00  0.0000000000000D+00
   290  2.8900000000000D+00  0.0000000000000D+00  0.0000000000000D+00
   291  2.9000000000000D+00  0.0000000000000D+00  0.0000000000000D+00
   292  2.9100000000000D+00  0.0000000000000D+00  0.0000000000000D+00
   293  2.9200000000000D+00  0.0000000000000D+00  0.0000000000000D+00
   294  2.9300000000000D+00  0.0000000000000D+00  0.0000000000000D+00
   295  2.9400000000000D+00  0.0000000000000D+00  0.0000000000000D+00
   296  2.9500000000000D+00  0.0000000000000D+00  0.0000000000000D+00
   297  2.9600000000000D+00  0.0000000000000D+00  0.0000000000000D+00
   298  2.9700000000000D+00  0.0000000000000D+00  0.0000000000000D+00
   299  2.9800000000000D+00  0.0000000000000D+00  0.0000000000000D+00
   300  2.9900000000000D+00  0.0000000000000D+00  0.0000000000000D+00
   301  3.0000000000000D+00  0.0000000000000D+00  0.0000000000000D+00
   302  3.0100000000000D+00  0.0000000000000D+00  0.0000000000000D+00
   303  3.0200000000000D+00  0.0000000000000D+00  0.0000000000000D+00
   304  3.0300000000000D+00  0.0000000000000D+00  0.0000000000000D+00
   305  3.0400000000000D+00  0.0000000000000D+00  0.0000000000000D+00
   306  3.0500000000000D+00  0.0000000000000D+00  0.0000000000000D+00
   307  3.0600000000000D+00  0.0000000000000D+00  0.0000000000000D+00
   308  3.0700000000000D+00  0.0000000000000D+00  0.0000000000000D+00
   309  3.0800000000000D+00  0.0000000000000D+00  0.0000000000000D+00
   310  3.0900000000000D+00  0.0000000000000D+00  0.0000000000000D+00
   311  3.1000000000000D+00  0.0000000000000D+00  0.0000000000000D+00
   312  3.1100000000000D+00  0.0000000000000D+00  0.0000000000000D+00
   313  3.1200000000000D+00  0.0000000000000D+00  0.0000000000000D+00
   314  3.1300000000000D+00  0.0000000000000D+00  0.0000000000000D+00
   315  3.1400000000000D+00  0.0000000000000D+00  0.0000000000000D+00
   316  3.1500000000000D+00  0.0000000000000D+00  0.0000000000000D+00
   317  3.1600000000000D+00  0.0000000000000D+00  0.0000000000000D+00
   318  3.1700000000000D+00  0.0000000000000D+00  0.0000000000000D+00
   319  3.1800000000000D+00  0.0000000000000D+00  0.0000000000000D+00
   320  3.1900000000000D+00  0.0000000000000D+00  0.0000000000000D+00
   321  3.2000000000000D+00  0.0000000000000D+00  0.0000000000000D+00
   322  3.2100000000000D+00  0.0000000000000D+00  0.0000000000000D+00
   323  3.2200000000000D+00  0.0000000000000D+00  0.0000000000000D+00
   324  3.2300000000000D+00  0.0000000000000D+00  0.0000000000000D+00
   325  3.2400000000000D+00  0.0000000000000D+00  0.0000000000000D+00
   326  3.2500000000000D+00  0.0000000000000D+00  0.0000000000000D+00
   327  3.2600000000000D+00  0.0000000000000D+00  0.0000000000000D+00
   328  3.2700000000000D+00  0.0000000000000D+00  0.0000000000000D+00
   329  3.2800000000000D+00  0.0000000000000D+00  0.0000000000000D+00
   330  3.2900000000000D+00  0.0000000000000D+00  0.0000000000000D+00
   331  3.3000000000000D+00  0.0000000000000D+00  0.0000000000000D+00
   332  3.3100000000000D+00  0.0000000000000D+00  0.0000000000000D+00
   333  3.3200000000000D+00  0.0000000000000D+00  0.0000000000000D+00
   334  3.3300000000000D+00  0.0000000000000D+00  0.0000000000000D+00
   335  3.3400000000000D+00  0.0000000000000D+00  0.0000000000000D+00
   336  3.3500000000000D+00  0.0000000000000D+00  0.0000000000000D+00
   337  3.3600000000000D+00  0.0000000000000D+00  0.0000000000000D+00
   338  3.3700000000000D+00  0.0000000000000D+00  0.0000000000000D+00
   339  3.3800000000000D+00  0.0000000000000D+00  0.0000000000000D+00
   340  3.3900000000000D+00  0.0000000000000D+00  0.0000000000000D+00
   341  3.4000000000000D+00  0.0000000000000D+00  0.0000000000000D+00
   342  3.4100000000000D+00  0.0000000000000D+00  0.0000000000000D+00
   343  3.4200000000000D+00  0.0000000000000D+00  0.0000000000000D+00
   344  3.4300000000000D+00  0.0000000000000D+00  0.0000000000000D+00
   345  3.4400000000000D+00  0.0000000000000D+00  0.0000000000000D+00
   346  3.4500000000000D+00  0.0000000000000D+00  0.0000000000000D+00
   347  3.4600000000000D+00  0.0000000000000D+00  0.0000000000000D+00
   348  3.4700000000000D+00  0.0000000000000D+00  0.0000000000000D+00
   349  3.4800000000000D+00  0.0000000000000D+00  0.0000000000000D+00
   350  3.4900000000000D+00  0.0000000000000D+00  0.0000000000000D+00
   351  3.5000000000000D+00  0.0000000000000D+00  0.0000000000000D+00
   352  3.5100000000000D+00  0.0000000000000D+00  0.0000000000000D+00
   353  3.5200000000000D+00  0.0000000000000D+00  0.0000000000000D+00
   354  3.5300000000000D+00  0.0000000000000D+00  0.0000000000000D+00
   355  3.5400000000000D+00  0.0000000000000D+00  0.0000000000000D+00
   356  3.5500000000000D+00  0.0000000000000D+00  0.0000000000000D+00
   357  3.5600000000000D+00  0.0000000000000D+00  0.0000000000000D+00
   358  3.5700000000000D+00  0.0000000000000D+00  0.0000000000000D+00
   359  3.5800000000000D+00  0.0000000000000D+00  0.0000000000000D+00
   360  3.5900000000000D+00  0.0000000000000D+00  0.0000000000000D+00
   361  3.6000000000000D+00  0.0000000000000D+00  0.0000000000000D+00
   362  3.6100000000000D+00  0.0000000000000D+00  0.0000000000000D+00
   363  3.6200000000000D+00  0.0000000000000D+00  0.0000000000000D+00
   364  3.6300000000000D+00  0.0000000000000D+00  0.0000000000000D+00
   365  3.6400000000000D+00  0.0000000000000D+00  0.0000000000000D+00
   366  3.6500000000000D+00  0.0000000000000D+00  0.0000000000000D+00
   367  3.6600000000000D+00  0.0000000000000D+00  0.0000000000000D+00
   368  3.6700000000000D+00  0.0000000000000D+00  0.0000000000000D+00
   369  3.6800000000000D+00  0.0000000000000D+00  0.0000000000000D+00
   370  3.6900000000000D+00  0.0000000000000D+00  0.0000000000000D+00
   371  3.7000000000000D+00  0.0000000000000D+00  0.0000000000000D+00
   372  3.7100000000000D+00  0.0000000000000D+00  0.0000000000000D+00
   373  3.7200000000000D+00  0.0000000000000D+00  0.0000000000000D+00
   374  3.7300000000000D+00  0.0000000000000D+00  0.0000000000000D+00
   375  3.7400000000000D+00  0.0000000000000D+00  0.0000000000000D+00
   376  3.7500000000000D+00  0.0000000000000D+00  0.0000000000000D+00
   377  3.7600000000000D+00  0.0000000000000D+00  0.0000000000000D+00
   378  3.7700000000000D+00  0.0000000000000D+00  0.0000000000000D+00
   379  3.7800000000000D+00  0.0000000000000D+00  0.0000000000000D+00
   380  3.7900000000000D+00  0.0000000000000D+00  0.0000000000000D+00
   381  3.8000000000000D+00  0.0000000000000D+00  0.0000000000000D+00
   382  3.8100000000000D+00  0.0000000000000D+00  0.0000000000000D+00
   383  3.8200000000000D+00  0.0000000000000D+00  0.0000000000000D+00
   384  3.8300000000000D+00  0.0000000000000D+00  0.0000000000000D+00
   385  3.8400000000000D+00  0.0000000000000D+00  0.0000000000000D+00
   386  3.8500000000000D+00  0.0000000000000D+00  0.0000000000000D+00
   387  3.8600000000000D+00  0.0000000000000D+00  0.0000000000000D+00
   388  3.8700000000000D+00  0.0000000000000D+00  0.0000000000000D+00
   389  3.8800000000000D+00  0.0000000000000D+00  0.0000000000000D+00
   390  3.8900000000000D+00  0.0000000000000D+00  0.0000000000000D+00
   391  3.9000000000000D+00  0.0000000000000D+00  0.0000000000000D+00
   392  3.9100000000000D+00  0.0000000000000D+00  0.0000000000000D+00
   393  3.9200000000000D+00  0.0000000000000D+00  0.0000000000000D+00
   394  3.9300000000000D+00  0.0000000000000D+00  0.0000000000000D+00
   395  3.9400000000000D+00  0.0000000000000D+00  0.0000000000000D+00
   396  3.9500000000000D+00  0.0000000000000D+00  0.0000000000000D+00
   397  3.9600000000000D+00  0.0000000000000D+00  0.0000000000000D+00
   398  3.9700000000000D+00  0.0000000000000D+00  0.0000000000000D+00
   399  3.9800000000000D+00  0.0000000000000D+00  0.0000000000000D+00
   400  3.9900000000000D+00  0.0000000000000D+00  0.0000000000000D+00
   1                        -6.4693573917510D+00 -2.5033129894744D+00
     1  0.0000000000000D+00  5.0697239462050D-10 -1.0377663867134D-09
     2  1.0000000000000D-02  1.9788265831818D-03 -8.7923074515909D-04
     3  2.0000000000000D-02  7.9059305371817D-03 -3.5083584901013D-03
     4  3.0000000000000D-02  1.7753230224551D-02 -7.8617546423416D-03
     5  4.0000000000000D-02  3.1474075140937D-02 -1.3896920576086D-02
     6  5.0000000000000D-02  4.9003473300706D-02 -2.1554809190675D-02
     7  6.0000000000000D-02  7.0258407682505D-02 -3.0760271146906D-02
     8  7.0000000000000D-02  9.5138239860685D-02 -4.1422621888421D-02
     9  8.0000000000000D-02  1.2352519844146D-01 -5.3436324517594D-02
    10  9.0000000000000D-02  1.5528494943667D-01 -6.6681782612059D-02
    11  1.0000000000000D-01  1.9026724524693D-01 -8.1026236149933D-02
    12  1.1000000000000D-01  2.2830664849349D-01 -9.6324752868745D-02
    13  1.2000000000000D-01  2.6922332653820D-01 -1.1242130662366D-01
    14  1.3000000000000D-01  3.1282391216579D-01 -1.2914993364290D-01
    15  1.4000000000000D-01  3.5890242557559D-01 -1.4633595700854D-01
    16  1.5000000000000D-01  4.0724125254251D-01 -1.6379726922469D-01
    17  1.6000000000000D-01  4.5761217336129D-01 -1.8134566237611D-01
    18  1.7000000000000D-01  5.0977743698471D-01 -1.9878819513125D-01
    19  1.8000000000000D-01  5.6349087460670D-01 -2.1592858570620D-01
    20  1.9000000000000D-01  6.1849904682437D-01 -2.3256861987876D-01
    21  2.0000000000000D-01  6.7454241843924D-01 -2.4850956322426D-01
    22  2.1000000000000D-01  7.3135655492616D-01 -2.6355356693332D-01