Mg    ONCVPSP-3.3.0  r_core=   2.31813   2.10714
     12.0000      2.0000      220117    zatom,zion,pspd
     8      11   1     4   400     0    pspcod,pspxc,lmax,lloc,mmax,r2well
  3.99000000  0.00000000  0.00000000    rchrg fchrg qchrg
     2     2     0     0     0    nproj
     1     1           extension_switch
   0                         6.2714860386908D+00  6.9261681091818D-01
     1  0.0000000000000D+00 -1.8370527321565D-11  5.3357495505280D-11
     2  1.0000000000000D-02  2.6671021898694D-02 -2.4206522302709D-03
     3  2.0000000000000D-02  5.3326116189188D-02 -4.8279070229184D-03
     4  3.0000000000000D-02  7.9949409716313D-02 -7.2085326207626D-03
     5  4.0000000000000D-02  1.0652513770559D-01 -9.5496270013585D-03
     6  5.0000000000000D-02  1.3303769664481D-01 -1.1838778692584D-02
     7  6.0000000000000D-02  1.5947169560824D-01 -1.4064222764083D-02
     8  7.0000000000000D-02  1.8581200552587D-01 -1.6214990449509D-02
     9  8.0000000000000D-02  2.1204380591883D-01 -1.8281050907859D-02
    10  9.0000000000000D-02  2.3815262864440D-01 -2.0253443698113D-02
    11  1.0000000000000D-01  2.6412439822106D-01 -2.2124400619290D-02
    12  1.1000000000000D-01  2.8994546833481D-01 -2.3887455657386D-02
    13  1.2000000000000D-01  3.1560265416213D-01 -2.5537541880706D-02
    14  1.3000000000000D-01  3.4108326018296D-01 -2.7071074235022D-02
    15  1.4000000000000D-01  3.6637510319765D-01 -2.8486017309046D-02
    16  1.5000000000000D-01  3.9146653030583D-01 -2.9781937267740D-02
    17  1.6000000000000D-01  4.1634643165044D-01 -3.0960037285207D-02
    18  1.7000000000000D-01  4.4100424777889D-01 -3.2023175949155D-02
    19  1.8000000000000D-01  4.6542997152228D-01 -3.2975868253942D-02
    20  1.9000000000000D-01  4.8961414434468D-01 -3.3824268948217D-02
    21  2.0000000000000D-01  5.1354784716597D-01 -3.4576138154521D-02
    22  2.1000000000000D-01  5.3722268571361D-01 -3.5240789331027D-02
    23  2.2000000000000D-01  5.6063077051055D-01 -3.5829019798496D-02
    24  2.3000000000000D-01  5.8376469165777D-01 -3.6353024207362D-02
    25  2.4000000000000D-01  6.0661748862024D-01 -3.6826291469265D-02
    26  2.5000000000000D-01  6.2918261527421D-01 -3.7263485823348D-02
    27  2.6000000000000D-01  6.5145390052055D-01 -3.7680312848757D-02
    28  2.7000000000000D-01  6.7342550481415D-01 -3.8093371370138D-02
    29  2.8000000000000D-01  6.9509187300146D-01 -3.8519992331198D-02
    30  2.9000000000000D-01  7.1644768389767D-01 -3.8978065831673D-02
    31  3.0000000000000D-01  7.3748779707092D-01 -3.9485857634263D-02
    32  3.1000000000000D-01  7.5820719733338D-01 -4.0061816549199D-02
    33  3.2000000000000D-01  7.7860093746716D-01 -4.0724374194667D-02
    34  3.3000000000000D-01  7.9866407973723D-01 -4.1491738709826D-02
    35  3.4000000000000D-01  8.1839163676299D-01 -4.2381684063819D-02
    36  3.5000000000000D-01  8.3777851233504D-01 -4.3411336657582D-02
    37  3.6000000000000D-01  8.5681944277355D-01 -4.4596960955549D-02
    38  3.7000000000000D-01  8.7550893942966D-01 -4.5953745910563D-02
    39  3.8000000000000D-01  8.9384123293109D-01 -4.7495593958061D-02
    40  3.9000000000000D-01  9.1181021976782D-01 -4.9234914353221D-02
    41  4.0000000000000D-01  9.2940941180302D-01 -5.1182422609188D-02
    42  4.1000000000000D-01  9.4663188927865D-01 -5.3346947763878D-02
    43  4.2000000000000D-01  9.6347025786449D-01 -5.5735249158653D-02
    44  4.3000000000000D-01  9.7991661027310D-01 -5.8351844354171D-02
    45  4.4000000000000D-01  9.9596249293285D-01 -6.1198849737287D-02
    46  4.5000000000000D-01  1.0115988781753D+00 -6.4275835288832D-02
    47  4.6000000000000D-01  1.0268161423541D+00 -6.7579694885649D-02
    48  4.7000000000000D-01  1.0416040502668D+00 -7.1104533402637D-02
    49  4.8000000000000D-01  1.0559517462061D+00 -7.4841571762069D-02
    50  4.9000000000000D-01  1.0698477519116D+00 -7.8779070949432D-02
    51  5.0000000000000D-01  1.0832799716421D+00 -8.2902275878266D-02
    52  5.1000000000000D-01  1.0962357045279D+00 -8.7193379842163D-02
    53  5.2000000000000D-01  1.1087016643060D+00 -9.1631510141342D-02
    54  5.3000000000000D-01  1.1206640064761D+00 -9.6192735315214D-02
    55  5.4000000000000D-01  1.1321083628538D+00 -1.0085009425268D-01
    56  5.5000000000000D-01  1.1430198834340D+00 -1.0557364728933D-01
    57  5.6000000000000D-01  1.1533832854109D+00 -1.1033054923725D-01
    58  5.7000000000000D-01  1.1631829091386D+00 -1.1508514412997D-01
    59  5.8000000000000D-01  1.1724027807504D+00 -1.1979908130287D-01
    60  5.9000000000000D-01  1.1810266810941D+00 -1.2443145227158D-01
    61  6.0000000000000D-01  1.1890382205788D+00 -1.2893894771583D-01
    62  6.1000000000000D-01  1.1964209194686D+00 -1.3327603372887D-01
    63  6.2000000000000D-01  1.2031582931051D+00 -1.3739514635105D-01
    64  6.3000000000000D-01  1.2092339414846D+00 -1.4124690327408D-01
    65  6.4000000000000D-01  1.2146316425701D+00 -1.4478033148050D-01
    66  6.5000000000000D-01  1.2193354486694D+00 -1.4794310947101D-01
    67  6.6000000000000D-01  1.2233297851739D+00 -1.5068182263421D-01
    68  6.7000000000000D-01  1.2265995509155D+00 -1.5294223022780D-01
    69  6.8000000000000D-01  1.2291302193692D+00 -1.5466954236919D-01
    70  6.9000000000000D-01  1.2309079399054D+00 -1.5580870537848D-01
    71  7.0000000000000D-01  1.2319196382795D+00 -1.5630469377718D-01
    72  7.1000000000000D-01  1.2321531155325D+00 -1.5610280722391D-01
    73  7.2000000000000D-01  1.2315971444747D+00 -1.5514897066354D-01
    74  7.3000000000000D-01  1.2302415629239D+00 -1.5339003597917D-01
    75  7.4000000000000D-01  1.2280773628826D+00 -1.5077408346825D-01
    76  7.5000000000000D-01  1.2250967748522D+00 -1.4725072151332D-01
    77  7.6000000000000D-01  1.2212933465083D+00 -1.4277138288717D-01
    78  7.7000000000000D-01  1.2166620149906D+00 -1.3728961621854D-01
    79  7.8000000000000D-01  1.2111991721029D+00 -1.3076137125006D-01
    80  7.9000000000000D-01  1.2049027217586D+00 -1.2314527664289D-01
    81  8.0000000000000D-01  1.1977721290673D+00 -1.1440290922327D-01
    82  8.1000000000000D-01  1.1898084605095D+00 -1.0449905372326D-01
    83  8.2000000000000D-01  1.1810144147204D+00 -9.3401952240860D-02
    84  8.3000000000000D-01  1.1713943434699D+00 -8.1083542833241D-02
    85  8.4000000000000D-01  1.1609542625074D+00 -6.7519686858617D-02
    86  8.5000000000000D-01  1.1497018520238D+00 -5.2690384897312D-02
    87  8.6000000000000D-01  1.1376464465719D+00 -3.6579981308914D-02
    88  8.7000000000000D-01  1.1247990143776D+00 -1.9177357718986D-02
    89  8.8000000000000D-01  1.1111721260772D+00 -4.7611597375636D-04
    90  8.9000000000000D-01  1.0967799130115D+00  1.9525248646838D-02
    91  9.0000000000000D-01  1.0816380153165D+00  4.0823182909833D-02
    92  9.1000000000000D-01  1.0657635201535D+00  6.3408918495365D-02
    93  9.2000000000000D-01  1.0491748905316D+00  8.7268320677144D-02
    94  9.3000000000000D-01  1.0318918852840D+00  1.1238174098426D-01
    95  9.4000000000000D-01  1.0139354708691D+00  1.3872387175111D-01
    96  9.5000000000000D-01  9.9532772577557D-01  1.6626360020629D-01
    97  9.6000000000000D-01  9.7609173841970D-01  1.9496385950168D-01
    98  9.7000000000000D-01  9.5625149952752D-01  2.2478147384092D-01
    99  9.8000000000000D-01  9.3583178994578D-01  2.5566699418008D-01
   100  9.9000000000000D-01  9.1485806476716D-01  2.8756451987992D-01
   101  1.0000000000000D+00  8.9335634899909D-01  3.2041154688055D-01
   102  1.0100000000000D+00  8.7135306449116D-01  3.5413859012975D-01
   103  1.0200000000000D+00  8.4887526204922D-01  3.8866998541198D-01
   104  1.0300000000000D+00  8.2595115719447D-01  4.2392576049821D-01
   105  1.0400000000000D+00  8.0261045910153D-01  4.5982316741731D-01
   106  1.0500000000000D+00  7.7888420464681D-01  4.9627686400740D-01
   107  1.0600000000000D+00  7.5480465348117D-01  5.3319927334406D-01
   108  1.0700000000000D+00  7.3040516388068D-01  5.7050090023515D-01
   109  1.0800000000000D+00  7.0572007045798D-01  6.0809065915729D-01
   110  1.0900000000000D+00  6.8078455959810D-01  6.4587619996808D-01
   111  1.1000000000000D+00  6.5563454430845D-01  6.8376423368939D-01
   112  1.1100000000000D+00  6.3030653878246D-01  7.2166085680615D-01
   113  1.1200000000000D+00  6.0483753314785D-01  7.5947187303772D-01
   114  1.1300000000000D+00  5.7926486886362D-01  7.9710311155629D-01
   115  1.1400000000000D+00  5.5362611521638D-01  8.3446074064960D-01
   116  1.1500000000000D+00  5.2795894735768D-01  8.7145157583990D-01
   117  1.1600000000000D+00  5.0230102630172D-01  9.0798338149862D-01
   118  1.1700000000000D+00  4.7668988128737D-01  9.4396516501280D-01
   119  1.1800000000000D+00  4.5116279488499D-01  9.7930746258367D-01
   120  1.1900000000000D+00  4.2575669121379D-01  1.0139226157519D+00
   121  1.2000000000000D+00  4.0050802760264D-01  1.0477250377736D+00
   122  1.2100000000000D+00  3.7545269000813D-01  1.0806314689902D+00
   123  1.2200000000000D+00  3.5062589248522D-01  1.1125612203516D+00
   124  1.2300000000000D+00  3.2606208097590D-01  1.1434364042822D+00
   125  1.2400000000000D+00  3.0179484165853D-01  1.1731821521083D+00
   126  1.2500000000000D+00  2.7785681408457D-01  1.2017268172893D+00
   127  1.2600000000000D+00  2.5427960930799D-01  1.2290021637228D+00
   128  1.2700000000000D+00  2.3109373318592D-01  1.2549435384550D+00
   129  1.2800000000000D+00  2.0832851502017D-01  1.2794900281675D+00
   130  1.2900000000000D+00  1.8601204169334D-01  1.3025845988342D+00
   131  1.3000000000000D+00  1.6417109742650D-01  1.3241742180830D+00
   132  1.3100000000000D+00  1.4283110928194D-01  1.3442099598352D+00
   133  1.3200000000000D+00  1.2201609852103D-01  1.3626470908430D+00
   134  1.3300000000000D+00  1.0174863789662D-01  1.3794451390236D+00
   135  1.3400000000000D+00  8.2049814962848D-02  1.3945679434583D+00
   136  1.3500000000000D+00  6.2939201465406D-02  1.4079836861026D+00
   137  1.3600000000000D+00  4.4434828824590D-02  1.4196649057246D+00
   138  1.3700000000000D+00  2.6553169760031D-02  1.4295884942580D+00
   139  1.3800000000000D+00  9.3091260219014D-03  1.4377356765466D+00
   140  1.3900000000000D+00 -7.2839778400147D-03  1.4440919745849D+00
   141  1.4000000000000D+00 -2.3214394687565D-02  1.4486471571583D+00
   142  1.4100000000000D+00 -3.8471949222374D-02  1.4513951771758D+00
   143  1.4200000000000D+00 -5.3048026731849D-02  1.4523340980960D+00
   144  1.4300000000000D+00 -6.6935556437675D-02  1.4514660121206D+00
   145  1.4400000000000D+00 -8.0128989849673D-02  1.4487969530094D+00
   146  1.4500000000000D+00 -9.2624274345985D-02  1.4443368060387D+00
   147  1.4600000000000D+00 -1.0441882274190D-01  1.4380992193008D+00
   148  1.4700000000000D+00 -1.1551147915654D-01  1.4301015192049D+00
   149  1.4800000000000D+00 -1.2590248208447D-01  1.4203646348211D+00
   150  1.4900000000000D+00 -1.3559342533386D-01  1.4089130343237D+00
   151  1.5000000000000D+00 -1.4458721770640D-01  1.3957746786110D+00
   152  1.5100000000000D+00 -1.5288804242809D-01  1.3809809940880D+00
   153  1.5200000000000D+00 -1.6050131726271D-01  1.3645668710523D+00
   154  1.5300000000000D+00 -1.6743365636034D-01  1.3465706864601D+00
   155  1.5400000000000D+00 -1.7369283495692D-01  1.3270343579914D+00
   156  1.5500000000000D+00 -1.7928775778482D-01  1.3060034255819D+00
   157  1.5600000000000D+00 -1.8422843219901D-01  1.2835271637477D+00
   158  1.5700000000000D+00 -1.8852594684514D-01  1.2596587207657D+00
   159  1.5800000000000D+00 -1.9219245599898D-01  1.2344552799229D+00
   160  1.5900000000000D+00 -1.9524117074646D-01  1.2079782404212D+00
   161  1.6000000000000D+00 -1.9768635534988D-01  1.1802934025630D+00
   162  1.6100000000000D+00 -1.9954333061016D-01  1.1514711558348D+00
   163  1.6200000000000D+00 -2.0082848016931D-01  1.1215866455117D+00
   164  1.6300000000000D+00 -2.0155926206386D-01  1.0907199134047D+00
   165  1.6400000000000D+00 -2.0175421929022D-01  1.0589559871354D+00
   166  1.6500000000000D+00 -2.0143299125653D-01  1.0263849022802D+00
   167  1.6600000000000D+00 -2.0061631924287D-01  9.9310164502308D-01
   168  1.6700000000000D+00 -1.9932604542225D-01  9.5920597734751D-01
   169  1.6800000000000D+00 -1.9758510092705D-01  9.2480216406040D-01
   170  1.6900000000000D+00 -1.9541747766625D-01  8.8999853182264D-01
   171  1.7000000000000D+00 -1.9284818549946D-01  8.5490692617255D-01
   172  1.7100000000000D+00 -1.8990318270019D-01  8.1964196594394D-01
   173  1.7200000000000D+00 -1.8660929077261D-01  7.8432021261694D-01
   174  1.7300000000000D+00 -1.8299407389368D-01  7.4905913028094D-01
   175  1.7400000000000D+00 -1.7908570446977D-01  7.1397599238730D-01
   176  1.7500000000000D+00 -1.7491279140243D-01  6.7918662858337D-01
   177  1.7600000000000D+00 -1.7050419799939D-01  6.4480415607927D-01
   178  1.7700000000000D+00 -1.6588882991978D-01  6.1093764994845D-01
   179  1.7800000000000D+00 -1.6109541716565D-01  5.7769083778003D-01
   180  1.7900000000000D+00 -1.5615228318536D-01  5.4516086771939D-01
   181  1.8000000000000D+00 -1.5108711367762D-01  5.1343714784304D-01
   182  1.8100000000000D+00 -1.4592673369711D-01  4.8260037672852D-01
   183  1.8200000000000D+00 -1.4069689372242D-01  4.5272171156253D-01
   184  1.8300000000000D+00 -1.3542208052242D-01  4.2386218052867D-01
   185  1.8400000000000D+00 -1.3012535194319D-01  3.9607231728890D-01
   186  1.8500000000000D+00 -1.2482820097021D-01  3.6939201004456D-01
   187  1.8600000000000D+00 -1.1955046192626D-01  3.4385064221338D-01
   188  1.8700000000000D+00 -1.1431023918961D-01  3.1946737358086D-01
   189  1.8800000000000D+00 -1.0912389026068D-01  2.9625170770818D-01
   190  1.8900000000000D+00 -1.0400602339001D-01  2.7420415126955D-01
   191  1.9000000000000D+00 -9.8969543959193D-02  2.5331704736970D-01
   192  1.9100000000000D+00 -9.4025716986910D-02  2.3357549551692D-01
   193  1.9200000000000D+00 -8.9184255733810D-02  2.1495829886996D-01
   194  1.9300000000000D+00 -8.4453428122643D-02  1.9743895761420D-01
   195  1.9400000000000D+00 -7.9840172691356D-02  1.8098663061905D-01
   196  1.9500000000000D+00 -7.5350219803205D-02  1.6556702551916D-01
   197  1.9600000000000D+00 -7.0988220933788D-02  1.5114328776993D-01
   198  1.9700000000000D+00 -6.6757863548557D-02  1.3767670428607D-01
   199  1.9800000000000D+00 -6.2661995185930D-02  1.2512741875437D-01
   200  1.9900000000000D+00 -5.8702725867637D-02  1.1345496263370D-01
   201  2.0000000000000D+00 -5.4881529485501D-02  1.0261873535919D-01
   202  2.0100000000000D+00 -5.1199332736384D-02  9.2578384116905D-02
   203  2.0200000000000D+00 -4.7656589556323D-02  8.3294081143401D-02
   204  2.0300000000000D+00 -4.4253352077816D-02  7.4726749303190D-02
   205  2.0400000000000D+00 -4.0989324690229D-02  6.6838208903125D-02
   206  2.0500000000000D+00 -3.7863913870174D-02  5.9591271730996D-02
   207  2.0600000000000D+00 -3.4876268731020D-02  5.2949802496540D-02
   208  2.0700000000000D+00 -3.2025314913915D-02  4.6878743753540D-02
   209  2.0800000000000D+00 -2.9309782962194D-02  4.1344109545324D-02
   210  2.0900000000000D+00 -2.6728234001438D-02  3.6312990359534D-02
   211  2.1000000000000D+00 -2.4279079302807D-02  3.1753517938126D-02
   212  2.1100000000000D+00 -2.1960600550770D-02  2.7634857232969D-02
   213  2.1200000000000D+00 -1.9770967031067D-02  2.3927188540811D-02
   214  2.1300000000000D+00 -1.7708250932272D-02  2.0601688315099D-02
   215  2.1400000000000D+00 -1.5770445081010D-02  1.7630538665900D-02
   216  2.1500000000000D+00 -1.3955476990279D-02  1.4986922869579D-02
   217  2.1600000000000D+00 -1.2261225666603D-02  1.2645046701630D-02
   218  2.1700000000000D+00 -1.0685537783645D-02  1.0580164557827D-02
   219  2.1800000000000D+00 -9.2262430348716D-03  8.7686090906990D-03
   220  2.1900000000000D+00 -7.8811716334351D-03  7.1878381223606D-03
   221  2.2000000000000D+00 -6.6481702425543D-03  5.8164811531036D-03
   222  2.2100000000000D+00 -5.5251185671417D-03  4.6343937783233D-03
   223  2.2200000000000D+00 -4.5099458172888D-03  3.6227160473467D-03
   224  2.2300000000000D+00 -3.6006462823264D-03  2.7639330520059D-03
   225  2.2400000000000D+00 -2.7954834231152D-03  2.0419434454716D-03
   226  2.2500000000000D+00 -2.0925927943531D-03  1.4421019670323D-03
   227  2.2600000000000D+00 -1.4894674222626D-03  9.5125479391182D-04
   228  2.2700000000000D+00 -9.8356418543539D-04  5.5883735760918D-04
   229  2.2800000000000D+00 -5.7578308688868D-04  2.5353799231767D-04
   230  2.2900000000000D+00 -2.6742134691030D-04  2.5786250239256D-05
   231  2.3000000000000D+00 -5.6252977026795D-05 -1.3729051818462D-04
   232  2.3100000000000D+00  6.3284878330849D-05 -2.2368953076464D-04
   233  2.3200000000000D+00  1.0202564202974D-04 -2.2706540327903D-04
   234  2.3300000000000D+00  7.6867505778567D-05 -1.5006924799964D-04
   235  2.3400000000000D+00  2.7583990369503D-05 -5.0940990321238D-05
   236  2.3500000000000D+00 -9.1796050866529D-06  1.6581818440422D-05
   237  2.3600000000000D+00 -1.5875145008507D-05  2.8045466190047D-05
   238  2.3700000000000D+00 -5.9519903397819D-06  1.0356391390175D-05
   239  2.3800000000000D+00  2.3420499610403D-06 -4.3653095102784D-06
   240  2.3900000000000D+00  3.2759462279705D-06 -6.0527792177482D-06
   241  2.4000000000000D+00  8.7544925204664D-07 -1.6060879856162D-06
   242  2.4100000000000D+00 -2.2369806816122D-07  5.1974513029565D-07
   243  2.4200000000000D+00 -2.6445280792922D-07  6.1443561066054D-07
   244  2.4300000000000D+00 -4.1661359240227D-08  9.6796940467987D-08
   245  2.4400000000000D+00  0.0000000000000D+00  0.0000000000000D+00
   246  2.4500000000000D+00  0.0000000000000D+00  0.0000000000000D+00
   247  2.4600000000000D+00  0.0000000000000D+00  0.0000000000000D+00
   248  2.4700000000000D+00  0.0000000000000D+00  0.0000000000000D+00
   249  2.4800000000000D+00  0.0000000000000D+00  0.0000000000000D+00
   250  2.4900000000000D+00  0.0000000000000D+00  0.0000000000000D+00
   251  2.5000000000000D+00  0.0000000000000D+00  0.0000000000000D+00
   252  2.5100000000000D+00  0.0000000000000D+00  0.0000000000000D+00
   253  2.5200000000000D+00  0.0000000000000D+00  0.0000000000000D+00
   254  2.5300000000000D+00  0.0000000000000D+00  0.0000000000000D+00
   255  2.5400000000000D+00  0.0000000000000D+00  0.0000000000000D+00
   256  2.5500000000000D+00  0.0000000000000D+00  0.0000000000000D+00
   257  2.5600000000000D+00  0.0000000000000D+00  0.0000000000000D+00
   258  2.5700000000000D+00  0.0000000000000D+00  0.0000000000000D+00
   259  2.5800000000000D+00  0.0000000000000D+00  0.0000000000000D+00
   260  2.5900000000000D+00  0.0000000000000D+00  0.0000000000000D+00
   261  2.6000000000000D+00  0.0000000000000D+00  0.0000000000000D+00
   262  2.6100000000000D+00  0.0000000000000D+00  0.0000000000000D+00
   263  2.6200000000000D+00  0.0000000000000D+00  0.0000000000000D+00
   264  2.6300000000000D+00  0.0000000000000D+00  0.0000000000000D+00
   265  2.6400000000000D+00  0.0000000000000D+00  0.0000000000000D+00
   266  2.6500000000000D+00  0.0000000000000D+00  0.0000000000000D+00
   267  2.6600000000000D+00  0.0000000000000D+00  0.0000000000000D+00
   268  2.6700000000000D+00  0.0000000000000D+00  0.0000000000000D+00
   269  2.6800000000000D+00  0.0000000000000D+00  0.0000000000000D+00
   270  2.6900000000000D+00  0.0000000000000D+00  0.0000000000000D+00
   271  2.7000000000000D+00  0.0000000000000D+00  0.0000000000000D+00
   272  2.7100000000000D+00  0.0000000000000D+00  0.0000000000000D+00
   273  2.7200000000000D+00  0.0000000000000D+00  0.0000000000000D+00
   274  2.7300000000000D+00  0.0000000000000D+00  0.0000000000000D+00
   275  2.7400000000000D+00  0.0000000000000D+00  0.0000000000000D+00
   276  2.7500000000000D+00  0.0000000000000D+00  0.0000000000000D+00
   277  2.7600000000000D+00  0.0000000000000D+00  0.0000000000000D+00
   278  2.7700000000000D+00  0.0000000000000D+00  0.0000000000000D+00
   279  2.7800000000000D+00  0.0000000000000D+00  0.0000000000000D+00
   280  2.7900000000000D+00  0.0000000000000D+00  0.0000000000000D+00
   281  2.8000000000000D+00  0.0000000000000D+00  0.0000000000000D+00
   282  2.8100000000000D+00  0.0000000000000D+00  0.0000000000000D+00
   283  2.8200000000000D+00  0.0000000000000D+00  0.0000000000000D+00
   284  2.8300000000000D+00  0.0000000000000D+00  0.0000000000000D+00
   285  2.8400000000000D+00  0.0000000000000D+00  0.0000000000000D+00
   286  2.8500000000000D+00  0.0000000000000D+00  0.0000000000000D+00
   287  2.8600000000000D+00  0.0000000000000D+00  0.0000000000000D+00
   288  2.8700000000000D+00  0.0000000000000D+00  0.0000000000000D+00
   289  2.8800000000000D+00  0.0000000000000D+00  0.0000000000000D+00
   290  2.8900000000000D+00  0.0000000000000D+00  0.0000000000000D+00
   291  2.9000000000000D+00  0.0000000000000D+00  0.0000000000000D+00
   292  2.9100000000000D+00  0.0000000000000D+00  0.0000000000000D+00
   293  2.9200000000000D+00  0.0000000000000D+00  0.0000000000000D+00
   294  2.9300000000000D+00  0.0000000000000D+00  0.0000000000000D+00
   295  2.9400000000000D+00  0.0000000000000D+00  0.0000000000000D+00
   296  2.9500000000000D+00  0.0000000000000D+00  0.0000000000000D+00
   297  2.9600000000000D+00  0.0000000000000D+00  0.0000000000000D+00
   298  2.9700000000000D+00  0.0000000000000D+00  0.0000000000000D+00
   299  2.9800000000000D+00  0.0000000000000D+00  0.0000000000000D+00
   300  2.9900000000000D+00  0.0000000000000D+00  0.0000000000000D+00
   301  3.0000000000000D+00  0.0000000000000D+00  0.0000000000000D+00
   302  3.0100000000000D+00  0.0000000000000D+00  0.0000000000000D+00
   303  3.0200000000000D+00  0.0000000000000D+00  0.0000000000000D+00
   304  3.0300000000000D+00  0.0000000000000D+00  0.0000000000000D+00
   305  3.0400000000000D+00  0.0000000000000D+00  0.0000000000000D+00
   306  3.0500000000000D+00  0.0000000000000D+00  0.0000000000000D+00
   307  3.0600000000000D+00  0.0000000000000D+00  0.0000000000000D+00
   308  3.0700000000000D+00  0.0000000000000D+00  0.0000000000000D+00
   309  3.0800000000000D+00  0.0000000000000D+00  0.0000000000000D+00
   310  3.0900000000000D+00  0.0000000000000D+00  0.0000000000000D+00
   311  3.1000000000000D+00  0.0000000000000D+00  0.0000000000000D+00
   312  3.1100000000000D+00  0.0000000000000D+00  0.0000000000000D+00
   313  3.1200000000000D+00  0.0000000000000D+00  0.0000000000000D+00
   314  3.1300000000000D+00  0.0000000000000D+00  0.0000000000000D+00
   315  3.1400000000000D+00  0.0000000000000D+00  0.0000000000000D+00
   316  3.1500000000000D+00  0.0000000000000D+00  0.0000000000000D+00
   317  3.1600000000000D+00  0.0000000000000D+00  0.0000000000000D+00
   318  3.1700000000000D+00  0.0000000000000D+00  0.0000000000000D+00
   319  3.1800000000000D+00  0.0000000000000D+00  0.0000000000000D+00
   320  3.1900000000000D+00  0.0000000000000D+00  0.0000000000000D+00
   321  3.2000000000000D+00  0.0000000000000D+00  0.0000000000000D+00
   322  3.2100000000000D+00  0.0000000000000D+00  0.0000000000000D+00
   323  3.2200000000000D+00  0.0000000000000D+00  0.0000000000000D+00
   324  3.2300000000000D+00  0.0000000000000D+00  0.0000000000000D+00
   325  3.2400000000000D+00  0.0000000000000D+00  0.0000000000000D+00
   326  3.2500000000000D+00  0.0000000000000D+00  0.0000000000000D+00
   327  3.2600000000000D+00  0.0000000000000D+00  0.0000000000000D+00
   328  3.2700000000000D+00  0.0000000000000D+00  0.0000000000000D+00
   329  3.2800000000000D+00  0.0000000000000D+00  0.0000000000000D+00
   330  3.2900000000000D+00  0.0000000000000D+00  0.0000000000000D+00
   331  3.3000000000000D+00  0.0000000000000D+00  0.0000000000000D+00
   332  3.3100000000000D+00  0.0000000000000D+00  0.0000000000000D+00
   333  3.3200000000000D+00  0.0000000000000D+00  0.0000000000000D+00
   334  3.3300000000000D+00  0.0000000000000D+00  0.0000000000000D+00
   335  3.3400000000000D+00  0.0000000000000D+00  0.0000000000000D+00
   336  3.3500000000000D+00  0.0000000000000D+00  0.0000000000000D+00
   337  3.3600000000000D+00  0.0000000000000D+00  0.0000000000000D+00
   338  3.3700000000000D+00  0.0000000000000D+00  0.0000000000000D+00
   339  3.3800000000000D+00  0.0000000000000D+00  0.0000000000000D+00
   340  3.3900000000000D+00  0.0000000000000D+00  0.0000000000000D+00
   341  3.4000000000000D+00  0.0000000000000D+00  0.0000000000000D+00
   342  3.4100000000000D+00  0.0000000000000D+00  0.0000000000000D+00
   343  3.4200000000000D+00  0.0000000000000D+00  0.0000000000000D+00
   344  3.4300000000000D+00  0.0000000000000D+00  0.0000000000000D+00
   345  3.4400000000000D+00  0.0000000000000D+00  0.0000000000000D+00
   346  3.4500000000000D+00  0.0000000000000D+00  0.0000000000000D+00
   347  3.4600000000000D+00  0.0000000000000D+00  0.0000000000000D+00
   348  3.4700000000000D+00  0.0000000000000D+00  0.0000000000000D+00
   349  3.4800000000000D+00  0.0000000000000D+00  0.0000000000000D+00
   350  3.4900000000000D+00  0.0000000000000D+00  0.0000000000000D+00
   351  3.5000000000000D+00  0.0000000000000D+00  0.0000000000000D+00
   352  3.5100000000000D+00  0.0000000000000D+00  0.0000000000000D+00
   353  3.5200000000000D+00  0.0000000000000D+00  0.0000000000000D+00
   354  3.5300000000000D+00  0.0000000000000D+00  0.0000000000000D+00
   355  3.5400000000000D+00  0.0000000000000D+00  0.0000000000000D+00
   356  3.5500000000000D+00  0.0000000000000D+00  0.0000000000000D+00
   357  3.5600000000000D+00  0.0000000000000D+00  0.0000000000000D+00
   358  3.5700000000000D+00  0.0000000000000D+00  0.0000000000000D+00
   359  3.5800000000000D+00  0.0000000000000D+00  0.0000000000000D+00
   360  3.5900000000000D+00  0.0000000000000D+00  0.0000000000000D+00
   361  3.6000000000000D+00  0.0000000000000D+00  0.0000000000000D+00
   362  3.6100000000000D+00  0.0000000000000D+00  0.0000000000000D+00
   363  3.6200000000000D+00  0.0000000000000D+00  0.0000000000000D+00
   364  3.6300000000000D+00  0.0000000000000D+00  0.0000000000000D+00
   365  3.6400000000000D+00  0.0000000000000D+00  0.0000000000000D+00
   366  3.6500000000000D+00  0.0000000000000D+00  0.0000000000000D+00
   367  3.6600000000000D+00  0.0000000000000D+00  0.0000000000000D+00
   368  3.6700000000000D+00  0.0000000000000D+00  0.0000000000000D+00
   369  3.6800000000000D+00  0.0000000000000D+00  0.0000000000000D+00
   370  3.6900000000000D+00  0.0000000000000D+00  0.0000000000000D+00
   371  3.7000000000000D+00  0.0000000000000D+00  0.0000000000000D+00
   372  3.7100000000000D+00  0.0000000000000D+00  0.0000000000000D+00
   373  3.7200000000000D+00  0.0000000000000D+00  0.0000000000000D+00
   374  3.7300000000000D+00  0.0000000000000D+00  0.0000000000000D+00
   375  3.7400000000000D+00  0.0000000000000D+00  0.0000000000000D+00
   376  3.7500000000000D+00  0.0000000000000D+00  0.0000000000000D+00
   377  3.7600000000000D+00  0.0000000000000D+00  0.0000000000000D+00
   378  3.7700000000000D+00  0.0000000000000D+00  0.0000000000000D+00
   379  3.7800000000000D+00  0.0000000000000D+00  0.0000000000000D+00
   380  3.7900000000000D+00  0.0000000000000D+00  0.0000000000000D+00
   381  3.8000000000000D+00  0.0000000000000D+00  0.0000000000000D+00
   382  3.8100000000000D+00  0.0000000000000D+00  0.0000000000000D+00
   383  3.8200000000000D+00  0.0000000000000D+00  0.0000000000000D+00
   384  3.8300000000000D+00  0.0000000000000D+00  0.0000000000000D+00
   385  3.8400000000000D+00  0.0000000000000D+00  0.0000000000000D+00
   386  3.8500000000000D+00  0.0000000000000D+00  0.0000000000000D+00
   387  3.8600000000000D+00  0.0000000000000D+00  0.0000000000000D+00
   388  3.8700000000000D+00  0.0000000000000D+00  0.0000000000000D+00
   389  3.8800000000000D+00  0.0000000000000D+00  0.0000000000000D+00
   390  3.8900000000000D+00  0.0000000000000D+00  0.0000000000000D+00
   391  3.9000000000000D+00  0.0000000000000D+00  0.0000000000000D+00
   392  3.9100000000000D+00  0.0000000000000D+00  0.0000000000000D+00
   393  3.9200000000000D+00  0.0000000000000D+00  0.0000000000000D+00
   394  3.9300000000000D+00  0.0000000000000D+00  0.0000000000000D+00
   395  3.9400000000000D+00  0.0000000000000D+00  0.0000000000000D+00
   396  3.9500000000000D+00  0.0000000000000D+00  0.0000000000000D+00
   397  3.9600000000000D+00  0.0000000000000D+00  0.0000000000000D+00
   398  3.9700000000000D+00  0.0000000000000D+00  0.0000000000000D+00
   399  3.9800000000000D+00  0.0000000000000D+00  0.0000000000000D+00
   400  3.9900000000000D+00  0.0000000000000D+00  0.0000000000000D+00
   1                         4.2726586545737D+00  7.5970327176987D-01
     1  0.0000000000000D+00  9.8693025973873D-11 -4.7016581600223D-11
     2  1.0000000000000D-02  1.1966548966489D-03 -3.7563244055947D-04
     3  2.0000000000000D-02  4.7810841805074D-03 -1.4992875047868D-03
     4  3.0000000000000D-02  1.0736704517148D-02 -3.3612535602347D-03
     5  4.0000000000000D-02  1.9035953250921D-02 -5.9453950012575D-03
     6  5.0000000000000D-02  2.9640402601562D-02 -9.2292278581649D-03
     7  6.0000000000000D-02  4.2500919225187D-02 -1.3184025520501D-02
     8  7.0000000000000D-02  5.7557868820136D-02 -1.7774954438982D-02
     9  8.0000000000000D-02  7.4741365359467D-02 -2.2961239623601D-02
    10  9.0000000000000D-02  9.3971564427806D-02 -2.8696359702330D-02
    11  1.0000000000000D-01  1.1515900002993D-01 -3.4928271244576D-02
    12  1.1000000000000D-01  1.3820496412095D-01 -4.1599661985221D-02
    13  1.2000000000000D-01  1.6300192798270D-01 -4.8648232507654D-02
    14  1.3000000000000D-01  1.8943400443711D-01 -5.6007005857246D-02
    15  1.4000000000000D-01  2.1737744974528D-01 -6.3604664459578D-02
    16  1.5000000000000D-01  2.4670120388969D-01 -7.1365913610228D-02
    17  1.6000000000000D-01  2.7726746777720D-01 -7.9211870684980D-02
    18  1.7000000000000D-01  3.0893231573229D-01 -8.7060479090960D-02
    19  1.8000000000000D-01  3.4154634147391D-01 -9.4826945841072D-02
    20  1.9000000000000D-01  3.7495533558586D-01 -1.0242420148645D-01
    21  2.0000000000000D-01  4.0900099230134D-01 -1.0976338098563D-01
    22  2.1000000000000D-01  4.4352164322747D-01 -1.1675432392554D-01