Y     ONCVPSP-3.3.0  r_core=   1.60520   1.51226   1.56736
     39.0000     11.0000      220117    zatom,zion,pspd
     8      11   2     4   600     0    pspcod,pspxc,lmax,lloc,mmax,r2well
  5.99000000  0.00000000  0.00000000    rchrg fchrg qchrg
     2     2     2     0     0    nproj
     1     1           extension_switch
   0                         1.0169752155431D+01  8.7532117633220D-01
     1  0.0000000000000D+00  7.0523087369878D-11 -2.5464938491204D-10
     2  1.0000000000000D-02  4.9197031551630D-02 -1.0028289380091D-02
     3  2.0000000000000D-02  9.8359722244705D-02 -2.0110790714300D-02
     4  3.0000000000000D-02  1.4745352767650D-01 -3.0300772478676D-02
     5  4.0000000000000D-02  1.9644349865899D-01 -4.0649624668218D-02
     6  5.0000000000000D-02  2.4529408456587D-01 -5.1205940679339D-02
     7  6.0000000000000D-02  2.9396894351703D-01 -6.2014624358999D-02
     8  7.0000000000000D-02  3.4243076159664D-01 -7.3116030309306D-02
     9  8.0000000000000D-02  3.9064108323021D-01 -8.4545145281714D-02
    10  9.0000000000000D-02  4.3856015475903D-01 -9.6330818180044D-02
    11  1.0000000000000D-01  4.8614678314693D-01 -1.0849504581849D-01
    12  1.1000000000000D-01  5.3335821163554D-01 -1.2105232115199D-01
    13  1.2000000000000D-01  5.8015001403099D-01 -1.3400905021527D-01
    14  1.3000000000000D-01  6.2647600915808D-01 -1.4736304347606D-01
    15  1.4000000000000D-01  6.7228819685821D-01 -1.6110308673229D-01
    16  1.5000000000000D-01  7.1753671673654D-01 -1.7520859606512D-01
    17  1.6000000000000D-01  7.6216983068220D-01 -1.8964936070514D-01
    18  1.7000000000000D-01  8.0613392999520D-01 -2.0438537698180D-01
    19  1.8000000000000D-01  8.4937356775547D-01 -2.1936677581106D-01
    20  1.9000000000000D-01  8.9183151686506D-01 -2.3453384543840D-01
    21  2.0000000000000D-01  9.3344885398546D-01 -2.4981715040024D-01
    22  2.1000000000000D-01  9.7416506937938D-01 -2.6513774689898D-01
    23  2.2000000000000D-01  1.0139182024520D+00 -2.8040749401448D-01
    24  2.3000000000000D-01  1.0526450025726D+00 -2.9552945940082D-01
    25  2.4000000000000D-01  1.0902811145426D+00 -3.1039841734802D-01
    26  2.5000000000000D-01  1.1267612878694D+00 -3.2490143633042D-01
    27  2.6000000000000D-01  1.1620196087941D+00 -3.3891855242164D-01
    28  2.7000000000000D-01  1.1959897538272D+00 -3.5232352423554D-01
    29  2.8000000000000D-01  1.2286052633483D+00 -3.6498466436041D-01
    30  2.9000000000000D-01  1.2597998336483D+00 -3.7676574159354D-01
    31  3.0000000000000D-01  1.2895076256137D+00 -3.8752694766091D-01
    32  3.1000000000000D-01  1.3176635880955D+00 -3.9712592152791D-01
    33  3.2000000000000D-01  1.3442037938564D+00 -4.0541882387443D-01
    34  3.3000000000000D-01  1.3690657858525D+00 -4.1226145382797D-01
    35  3.4000000000000D-01  1.3921889314924D+00 -4.1751039962410D-01
    36  3.5000000000000D-01  1.4135147824103D+00 -4.2102421449827D-01
    37  3.6000000000000D-01  1.4329874372056D+00 -4.2266460881142D-01
    38  3.7000000000000D-01  1.4505539045352D+00 -4.2229764917518D-01
    39  3.8000000000000D-01  1.4661644638961D+00 -4.1979495517391D-01
    40  3.9000000000000D-01  1.4797730214060D+00 -4.1503488418291D-01
    41  4.0000000000000D-01  1.4913374578821D+00 -4.0790369475432D-01
    42  4.1000000000000D-01  1.5008199665261D+00 -3.9829667908862D-01
    43  4.2000000000000D-01  1.5081873775580D+00 -3.8611925522701D-01
    44  4.3000000000000D-01  1.5134114671869D+00 -3.7128800979118D-01
    45  4.4000000000000D-01  1.5164692483832D+00 -3.5373168236013D-01
    46  4.5000000000000D-01  1.5173432410020D+00 -3.3339208290658D-01
    47  4.6000000000000D-01  1.5160217189195D+00 -3.1022493411969D-01
    48  4.7000000000000D-01  1.5124989319712D+00 -2.8420063090898D-01
    49  4.8000000000000D-01  1.5067753006270D+00 -2.5530490991910D-01
    50  4.9000000000000D-01  1.4988575814990D+00 -2.2353942247921D-01
    51  5.0000000000000D-01  1.4887590019583D+00 -1.8892220506154D-01
    52  5.1000000000000D-01  1.4764993623289D+00 -1.5148804202819D-01
    53  5.2000000000000D-01  1.4621051043337D+00 -1.1128871619655D-01
    54  5.3000000000000D-01  1.4456093446863D+00 -6.8393143548260D-02
    55  5.4000000000000D-01  1.4270518729513D+00 -2.2887389237780D-02
    56  5.5000000000000D-01  1.4064791130340D+00  2.5125437079733D-02
    57  5.6000000000000D-01  1.3839440479067D+00  7.5525407695605D-02
    58  5.7000000000000D-01  1.3595061074276D+00  1.2817612525559D-01
    59  5.8000000000000D-01  1.3332310193678D+00  1.8292519239934D-01
    60  5.9000000000000D-01  1.3051906240116D+00  2.3960480097650D-01
    61  6.0000000000000D-01  1.2754626529604D+00  2.9803243826662D-01
    62  6.1000000000000D-01  1.2441304730184D+00  3.5801170671619D-01
    63  6.2000000000000D-01  1.2112827962934D+00  4.1933325281439D-01
    64  6.3000000000000D-01  1.1770133578907D+00  4.8177579985395D-01
    65  6.4000000000000D-01  1.1414205628147D+00  5.4510727848647D-01
    66  6.5000000000000D-01  1.1046071039221D+00  6.0908604817598D-01
    67  6.6000000000000D-01  1.0666795529890D+00  6.7346220189429D-01
    68  6.7000000000000D-01  1.0277479271549D+00  7.3797894569551D-01
    69  6.8000000000000D-01  9.8792523319897D-01  8.0237404415186D-01
    70  6.9000000000000D-01  9.4732699227669D-01  8.6638132204337D-01
    71  7.0000000000000D-01  9.0607074789955D-01  9.2973221217111D-01
    72  7.1000000000000D-01  8.6427556007748D-01  9.9215733871401D-01
    73  7.2000000000000D-01  8.2206148866084D-01  1.0533881251733D+00
    74  7.3000000000000D-01  7.7954906901294D-01  1.1131584156567D+00
    75  7.4000000000000D-01  7.3685878321772D-01  1.1712060980436D+00
    76  7.5000000000000D-01  6.9411053007704D-01  1.2272747174494D+00
    77  7.6000000000000D-01  6.5142309717900D-01  1.2811150683699D+00
    78  7.7000000000000D-01  6.0891363832139D-01  1.3324867539415D+00
    79  7.8000000000000D-01  5.6669715955335D-01  1.3811597008949D+00
    80  7.9000000000000D-01  5.2488601705311D-01  1.4269156190132D+00
    81  8.0000000000000D-01  4.8358942999061D-01  1.4695493942257D+00
    82  8.1000000000000D-01  4.4291301143125D-01  1.5088704048787D+00
    83  8.2000000000000D-01  4.0295832022133D-01  1.5447037512147D+00
    84  8.3000000000000D-01  3.6382243665834D-01  1.5768913886685D+00
    85  8.4000000000000D-01  3.2559756458973D-01  1.6052931562382D+00
    86  8.5000000000000D-01  2.8837066240480D-01  1.6297876919169D+00
    87  8.6000000000000D-01  2.5222310518600D-01  1.6502732279638D+00
    88  8.7000000000000D-01  2.1723038007026D-01  1.6666682596473D+00
    89  8.8000000000000D-01  1.8346181663910D-01  1.6789120820102D+00
    90  8.9000000000000D-01  1.5098035391061D-01  1.6869651901632D+00
    91  9.0000000000000D-01  1.1984234524783D-01  1.6908095396224D+00
    92  9.1000000000000D-01  9.0097402229691D-02  1.6904486642408D+00
    93  9.2000000000000D-01  6.1788278253344D-02  1.6859076503525D+00
    94  9.3000000000000D-01  3.4950792353718D-02  1.6772329668275D+00
    95  9.4000000000000D-01  9.6137934388502D-03  1.6644921518326D+00
    96  9.5000000000000D-01 -1.4200835149472D-02  1.6477733581813D+00
    97  9.6000000000000D-01 -3.6478131127896D-02  1.6271847602448D+00
    98  9.7000000000000D-01 -5.7209969483317D-02  1.6028538264690D+00
    99  9.8000000000000D-01 -7.6394940344606D-02  1.5749264625655D+00
   100  9.9000000000000D-01 -9.4038189735047D-02  1.5435660314752D+00
   101  1.0000000000000D+00 -1.1015122468557D-01  1.5089522571546D+00
   102  1.0100000000000D+00 -1.2475168444071D-01  1.4712800201509D+00
   103  1.0200000000000D+00 -1.3786307972733D-01  1.4307580537827D+00
   104  1.0300000000000D+00 -1.4951450227731D-01  1.3876075505335D+00
   105  1.0400000000000D+00 -1.5974030700352D-01  1.3420606889882D+00
   106  1.0500000000000D+00 -1.6857976940082D-01  1.2943590922357D+00
   107  1.0600000000000D+00 -1.7607672092528D-01  1.2447522292689D+00
   108  1.0700000000000D+00 -1.8227916523253D-01  1.1934957713221D+00
   109  1.0800000000000D+00 -1.8723887827902D-01  1.1408499154660D+00
   110  1.0900000000000D+00 -1.9101099538346D-01  1.0870776880338D+00
   111  1.1000000000000D+00 -1.9365358840797D-01  1.0324432406138D+00
   112  1.1100000000000D+00 -1.9522723627026D-01  9.7721015140852D-01
   113  1.1200000000000D+00 -1.9579459200521D-01  9.2163974470283D-01
   114  1.1300000000000D+00 -1.9541994958043D-01  8.6598944100063D-01
   115  1.1400000000000D+00 -1.9416881364162D-01  8.1051115018678D-01
   116  1.1500000000000D+00 -1.9210747529457D-01  7.5544971967072D-01
   117  1.1600000000000D+00 -1.8930259694047D-01  7.0104144901196D-01
   118  1.1700000000000D+00 -1.8582080904591D-01  6.4751268187542D-01
   119  1.1800000000000D+00 -1.8172832164210D-01  5.9507848574623D-01
   120  1.1900000000000D+00 -1.7709055313058D-01  5.4394142883564D-01
   121  1.2000000000000D+00 -1.7197177880533D-01  4.9429046286566D-01
   122  1.2100000000000D+00 -1.6643480129173D-01  4.4629991949474D-01
   123  1.2200000000000D+00 -1.6054064493513D-01  4.0012862740434D-01
   124  1.2300000000000D+00 -1.5434827584102D-01  3.5591915563770D-01
   125  1.2400000000000D+00 -1.4791434901279D-01  3.1379718769741D-01
   126  1.2500000000000D+00 -1.4129298394993D-01  2.7387103053957D-01
   127  1.2600000000000D+00 -1.3453556953585D-01  2.3623126034787D-01
   128  1.2700000000000D+00 -1.2769059884633D-01  2.0095050615359D-01
   129  1.2800000000000D+00 -1.2080353441232D-01  1.6808337194750D-01
   130  1.2900000000000D+00 -1.1391670388553D-01  1.3766649549531D-01
   131  1.3000000000000D+00 -1.0706922583215D-01  1.0971874116471D-01
   132  1.3100000000000D+00 -1.0029696537609D-01  8.4241524039163D-02
   133  1.3200000000000D+00 -9.3632518690205D-02  6.1219259632397D-02
   134  1.3300000000000D+00 -8.7105225258497D-02  4.0619933232210D-02
   135  1.3400000000000D+00 -8.0741206793239D-02  2.2395782719209D-02
   136  1.3500000000000D+00 -7.4563430918572D-02  6.4840856003043D-03
   137  1.3600000000000D+00 -6.8591797927812D-02 -7.1919582002439D-03
   138  1.3700000000000D+00 -6.2843248601341D-02 -1.8722257558714D-02
   139  1.3800000000000D+00 -5.7331890579071D-02 -2.8208787059909D-02
   140  1.3900000000000D+00 -5.2069141081867D-02 -3.5764480107375D-02
   141  1.4000000000000D+00 -4.7063883159137D-02 -4.1512071165949D-02
   142  1.4100000000000D+00 -4.2322632709448D-02 -4.5582899725712D-02
   143  1.4200000000000D+00 -3.7849713480985D-02 -4.8115688817158D-02
   144  1.4300000000000D+00 -3.3647436883916D-02 -4.9255312184722D-02
   145  1.4400000000000D+00 -2.9716283715382D-02 -4.9151563294329D-02
   146  1.4500000000000D+00 -2.6055084557672D-02 -4.7957940538939D-02
   147  1.4600000000000D+00 -2.2661195586090D-02 -4.5830463309611D-02
   148  1.4700000000000D+00 -1.9530666631196D-02 -4.2926532900732D-02
   149  1.4800000000000D+00 -1.6658398532614D-02 -3.9403850192435D-02
   150  1.4900000000000D+00 -1.4038298286801D-02 -3.5419351791447D-02
   151  1.5000000000000D+00 -1.1663443902430D-02 -3.1128090775888D-02
   152  1.5100000000000D+00 -9.5259649798351D-03 -2.6683540858258D-02
   153  1.5200000000000D+00 -7.6174864415520D-03 -2.2235089905108D-02
   154  1.5300000000000D+00 -5.9298972501024D-03 -1.7923869215208D-02
   155  1.5400000000000D+00 -4.4560681836489D-03 -1.3879082312393D-02
   156  1.5500000000000D+00 -3.1909288520770D-03 -1.0213901252596D-02
   157  1.5600000000000D+00 -2.1315564172552D-03 -7.0252944280514D-03
   158  1.5700000000000D+00 -1.2734708252088D-03 -4.3768315861321D-03
   159  1.5800000000000D+00 -6.2048402580614D-04 -2.3408330469875D-03
   160  1.5900000000000D+00 -1.8727120884304D-04 -1.0267326593484D-03
   161  1.6000000000000D+00  3.3031353770892D-05 -3.7393633333159D-04
   162  1.6100000000000D+00  7.7571159067566D-05 -1.0816509578570D-04
   163  1.6200000000000D+00  2.6400390379983D-05 -1.4064358146326D-05
   164  1.6300000000000D+00 -1.2777021842853D-05  3.5492240129771D-06
   165  1.6400000000000D+00 -7.3459891907445D-06  7.7245225176283D-07
   166  1.6500000000000D+00  2.6035919421110D-06 -1.4289396413719D-06
   167  1.6600000000000D+00  1.5105081007176D-06 -6.9856687593788D-07
   168  1.6700000000000D+00 -1.9023050826383D-07  5.2481328624043D-07
   169  1.6800000000000D+00 -1.1051131835398D-07  3.0488173890425D-07
   170  1.6900000000000D+00  0.0000000000000D+00  0.0000000000000D+00
   171  1.7000000000000D+00  0.0000000000000D+00  0.0000000000000D+00
   172  1.7100000000000D+00  0.0000000000000D+00  0.0000000000000D+00
   173  1.7200000000000D+00  0.0000000000000D+00  0.0000000000000D+00
   174  1.7300000000000D+00  0.0000000000000D+00  0.0000000000000D+00
   175  1.7400000000000D+00  0.0000000000000D+00  0.0000000000000D+00
   176  1.7500000000000D+00  0.0000000000000D+00  0.0000000000000D+00
   177  1.7600000000000D+00  0.0000000000000D+00  0.0000000000000D+00
   178  1.7700000000000D+00  0.0000000000000D+00  0.0000000000000D+00
   179  1.7800000000000D+00  0.0000000000000D+00  0.0000000000000D+00
   180  1.7900000000000D+00  0.0000000000000D+00  0.0000000000000D+00
   181  1.8000000000000D+00  0.0000000000000D+00  0.0000000000000D+00
   182  1.8100000000000D+00  0.0000000000000D+00  0.0000000000000D+00
   183  1.8200000000000D+00  0.0000000000000D+00  0.0000000000000D+00
   184  1.8300000000000D+00  0.0000000000000D+00  0.0000000000000D+00
   185  1.8400000000000D+00  0.0000000000000D+00  0.0000000000000D+00
   186  1.8500000000000D+00  0.0000000000000D+00  0.0000000000000D+00
   187  1.8600000000000D+00  0.0000000000000D+00  0.0000000000000D+00
   188  1.8700000000000D+00  0.0000000000000D+00  0.0000000000000D+00
   189  1.8800000000000D+00  0.0000000000000D+00  0.0000000000000D+00
   190  1.8900000000000D+00  0.0000000000000D+00  0.0000000000000D+00
   191  1.9000000000000D+00  0.0000000000000D+00  0.0000000000000D+00
   192  1.9100000000000D+00  0.0000000000000D+00  0.0000000000000D+00
   193  1.9200000000000D+00  0.0000000000000D+00  0.0000000000000D+00
   194  1.9300000000000D+00  0.0000000000000D+00  0.0000000000000D+00
   195  1.9400000000000D+00  0.0000000000000D+00  0.0000000000000D+00
   196  1.9500000000000D+00  0.0000000000000D+00  0.0000000000000D+00
   197  1.9600000000000D+00  0.0000000000000D+00  0.0000000000000D+00
   198  1.9700000000000D+00  0.0000000000000D+00  0.0000000000000D+00
   199  1.9800000000000D+00  0.0000000000000D+00  0.0000000000000D+00
   200  1.9900000000000D+00  0.0000000000000D+00  0.0000000000000D+00
   201  2.0000000000000D+00  0.0000000000000D+00  0.0000000000000D+00
   202  2.0100000000000D+00  0.0000000000000D+00  0.0000000000000D+00
   203  2.0200000000000D+00  0.0000000000000D+00  0.0000000000000D+00
   204  2.0300000000000D+00  0.0000000000000D+00  0.0000000000000D+00
   205  2.0400000000000D+00  0.0000000000000D+00  0.0000000000000D+00
   206  2.0500000000000D+00  0.0000000000000D+00  0.0000000000000D+00
   207  2.0600000000000D+00  0.0000000000000D+00  0.0000000000000D+00
   208  2.0700000000000D+00  0.0000000000000D+00  0.0000000000000D+00
   209  2.0800000000000D+00  0.0000000000000D+00  0.0000000000000D+00
   210  2.0900000000000D+00  0.0000000000000D+00  0.0000000000000D+00
   211  2.1000000000000D+00  0.0000000000000D+00  0.0000000000000D+00
   212  2.1100000000000D+00  0.0000000000000D+00  0.0000000000000D+00
   213  2.1200000000000D+00  0.0000000000000D+00  0.0000000000000D+00
   214  2.1300000000000D+00  0.0000000000000D+00  0.0000000000000D+00
   215  2.1400000000000D+00  0.0000000000000D+00  0.0000000000000D+00
   216  2.1500000000000D+00  0.0000000000000D+00  0.0000000000000D+00
   217  2.1600000000000D+00  0.0000000000000D+00  0.0000000000000D+00
   218  2.1700000000000D+00  0.0000000000000D+00  0.0000000000000D+00
   219  2.1800000000000D+00  0.0000000000000D+00  0.0000000000000D+00
   220  2.1900000000000D+00  0.0000000000000D+00  0.0000000000000D+00
   221  2.2000000000000D+00  0.0000000000000D+00  0.0000000000000D+00
   222  2.2100000000000D+00  0.0000000000000D+00  0.0000000000000D+00
   223  2.2200000000000D+00  0.0000000000000D+00  0.0000000000000D+00
   224  2.2300000000000D+00  0.0000000000000D+00  0.0000000000000D+00
   225  2.2400000000000D+00  0.0000000000000D+00  0.0000000000000D+00
   226  2.2500000000000D+00  0.0000000000000D+00  0.0000000000000D+00
   227  2.2600000000000D+00  0.0000000000000D+00  0.0000000000000D+00
   228  2.2700000000000D+00  0.0000000000000D+00  0.0000000000000D+00
   229  2.2800000000000D+00  0.0000000000000D+00  0.0000000000000D+00
   230  2.2900000000000D+00  0.0000000000000D+00  0.0000000000000D+00
   231  2.3000000000000D+00  0.0000000000000D+00  0.0000000000000D+00
   232  2.3100000000000D+00  0.0000000000000D+00  0.0000000000000D+00
   233  2.3200000000000D+00  0.0000000000000D+00  0.0000000000000D+00
   234  2.3300000000000D+00  0.0000000000000D+00  0.0000000000000D+00
   235  2.3400000000000D+00  0.0000000000000D+00  0.0000000000000D+00
   236  2.3500000000000D+00  0.0000000000000D+00  0.0000000000000D+00
   237  2.3600000000000D+00  0.0000000000000D+00  0.0000000000000D+00
   238  2.3700000000000D+00  0.0000000000000D+00  0.0000000000000D+00
   239  2.3800000000000D+00  0.0000000000000D+00  0.0000000000000D+00
   240  2.3900000000000D+00  0.0000000000000D+00  0.0000000000000D+00
   241  2.4000000000000D+00  0.0000000000000D+00  0.0000000000000D+00
   242  2.4100000000000D+00  0.0000000000000D+00  0.0000000000000D+00
   243  2.4200000000000D+00  0.0000000000000D+00  0.0000000000000D+00
   244  2.4300000000000D+00  0.0000000000000D+00  0.0000000000000D+00
   245  2.4400000000000D+00  0.0000000000000D+00  0.0000000000000D+00
   246  2.4500000000000D+00  0.0000000000000D+00  0.0000000000000D+00
   247  2.4600000000000D+00  0.0000000000000D+00  0.0000000000000D+00
   248  2.4700000000000D+00  0.0000000000000D+00  0.0000000000000D+00
   249  2.4800000000000D+00  0.0000000000000D+00  0.0000000000000D+00
   250  2.4900000000000D+00  0.0000000000000D+00  0.0000000000000D+00
   251  2.5000000000000D+00  0.0000000000000D+00  0.0000000000000D+00
   252  2.5100000000000D+00  0.0000000000000D+00  0.0000000000000D+00
   253  2.5200000000000D+00  0.0000000000000D+00  0.0000000000000D+00
   254  2.5300000000000D+00  0.0000000000000D+00  0.0000000000000D+00
   255  2.5400000000000D+00  0.0000000000000D+00  0.0000000000000D+00
   256  2.5500000000000D+00  0.0000000000000D+00  0.0000000000000D+00
   257  2.5600000000000D+00  0.0000000000000D+00  0.0000000000000D+00
   258  2.5700000000000D+00  0.0000000000000D+00  0.0000000000000D+00
   259  2.5800000000000D+00  0.0000000000000D+00  0.0000000000000D+00
   260  2.5900000000000D+00  0.0000000000000D+00  0.0000000000000D+00
   261  2.6000000000000D+00  0.0000000000000D+00  0.0000000000000D+00
   262  2.6100000000000D+00  0.0000000000000D+00  0.0000000000000D+00
   263  2.6200000000000D+00  0.0000000000000D+00  0.0000000000000D+00
   264  2.6300000000000D+00  0.0000000000000D+00  0.0000000000000D+00
   265  2.6400000000000D+00  0.0000000000000D+00  0.0000000000000D+00
   266  2.6500000000000D+00  0.0000000000000D+00  0.0000000000000D+00
   267  2.6600000000000D+00  0.0000000000000D+00  0.0000000000000D+00
   268  2.6700000000000D+00  0.0000000000000D+00  0.0000000000000D+00
   269  2.6800000000000D+00  0.0000000000000D+00  0.0000000000000D+00
   270  2.6900000000000D+00  0.0000000000000D+00  0.0000000000000D+00
   271  2.7000000000000D+00  0.0000000000000D+00  0.0000000000000D+00
   272  2.7100000000000D+00  0.0000000000000D+00  0.0000000000000D+00
   273  2.7200000000000D+00  0.0000000000000D+00  0.0000000000000D+00
   274  2.7300000000000D+00  0.0000000000000D+00  0.0000000000000D+00
   275  2.7400000000000D+00  0.0000000000000D+00  0.0000000000000D+00
   276  2.7500000000000D+00  0.0000000000000D+00  0.0000000000000D+00
   277  2.7600000000000D+00  0.0000000000000D+00  0.0000000000000D+00
   278  2.7700000000000D+00  0.0000000000000D+00  0.0000000000000D+00
   279  2.7800000000000D+00  0.0000000000000D+00  0.0000000000000D+00
   280  2.7900000000000D+00  0.0000000000000D+00  0.0000000000000D+00
   281  2.8000000000000D+00  0.0000000000000D+00  0.0000000000000D+00
   282  2.8100000000000D+00  0.0000000000000D+00  0.0000000000000D+00
   283  2.8200000000000D+00  0.0000000000000D+00  0.0000000000000D+00
   284  2.8300000000000D+00  0.0000000000000D+00  0.0000000000000D+00
   285  2.8400000000000D+00  0.0000000000000D+00  0.0000000000000D+00
   286  2.8500000000000D+00  0.0000000000000D+00  0.0000000000000D+00
   287  2.8600000000000D+00  0.0000000000000D+00  0.0000000000000D+00
   288  2.8700000000000D+00  0.0000000000000D+00  0.0000000000000D+00
   289  2.8800000000000D+00  0.0000000000000D+00  0.0000000000000D+00
   290  2.8900000000000D+00  0.0000000000000D+00  0.0000000000000D+00
   291  2.9000000000000D+00  0.0000000000000D+00  0.0000000000000D+00
   292  2.9100000000000D+00  0.0000000000000D+00  0.0000000000000D+00
   293  2.9200000000000D+00  0.0000000000000D+00  0.0000000000000D+00
   294  2.9300000000000D+00  0.0000000000000D+00  0.0000000000000D+00
   295  2.9400000000000D+00  0.0000000000000D+00  0.0000000000000D+00
   296  2.9500000000000D+00  0.0000000000000D+00  0.0000000000000D+00
   297  2.9600000000000D+00  0.0000000000000D+00  0.0000000000000D+00
   298  2.9700000000000D+00  0.0000000000000D+00  0.0000000000000D+00
   299  2.9800000000000D+00  0.0000000000000D+00  0.0000000000000D+00
   300  2.9900000000000D+00  0.0000000000000D+00  0.0000000000000D+00
   301  3.0000000000000D+00  0.0000000000000D+00  0.0000000000000D+00
   302  3.0100000000000D+00  0.0000000000000D+00  0.0000000000000D+00
   303  3.0200000000000D+00  0.0000000000000D+00  0.0000000000000D+00
   304  3.0300000000000D+00  0.0000000000000D+00  0.0000000000000D+00
   305  3.0400000000000D+00  0.0000000000000D+00  0.0000000000000D+00
   306  3.0500000000000D+00  0.0000000000000D+00  0.0000000000000D+00
   307  3.0600000000000D+00  0.0000000000000D+00  0.0000000000000D+00
   308  3.0700000000000D+00  0.0000000000000D+00  0.0000000000000D+00
   309  3.0800000000000D+00  0.0000000000000D+00  0.0000000000000D+00
   310  3.0900000000000D+00  0.0000000000000D+00  0.0000000000000D+00
   311  3.1000000000000D+00  0.0000000000000D+00  0.0000000000000D+00
   312  3.1100000000000D+00  0.0000000000000D+00  0.0000000000000D+00
   313  3.1200000000000D+00  0.0000000000000D+00  0.0000000000000D+00
   314  3.1300000000000D+00  0.0000000000000D+00  0.0000000000000D+00
   315  3.1400000000000D+00  0.0000000000000D+00  0.0000000000000D+00
   316  3.1500000000000D+00  0.0000000000000D+00  0.0000000000000D+00
   317  3.1600000000000D+00  0.0000000000000D+00  0.0000000000000D+00
   318  3.1700000000000D+00  0.0000000000000D+00  0.0000000000000D+00
   319  3.1800000000000D+00  0.0000000000000D+00  0.0000000000000D+00
   320  3.1900000000000D+00  0.0000000000000D+00  0.0000000000000D+00
   321  3.2000000000000D+00  0.0000000000000D+00  0.0000000000000D+00
   322  3.2100000000000D+00  0.0000000000000D+00  0.0000000000000D+00
   323  3.2200000000000D+00  0.0000000000000D+00  0.0000000000000D+00
   324  3.2300000000000D+00  0.0000000000000D+00  0.0000000000000D+00
   325  3.2400000000000D+00  0.0000000000000D+00  0.0000000000000D+00
   326  3.2500000000000D+00  0.0000000000000D+00  0.0000000000000D+00
   327  3.2600000000000D+00  0.0000000000000D+00  0.0000000000000D+00
   328  3.2700000000000D+00  0.0000000000000D+00  0.0000000000000D+00
   329  3.2800000000000D+00  0.0000000000000D+00  0.0000000000000D+00
   330  3.2900000000000D+00  0.0000000000000D+00  0.0000000000000D+00
   331  3.3000000000000D+00  0.0000000000000D+00  0.0000000000000D+00
   332  3.3100000000000D+00  0.0000000000000D+00  0.0000000000000D+00
   333  3.3200000000000D+00  0.0000000000000D+00  0.0000000000000D+00
   334  3.3300000000000D+00  0.0000000000000D+00  0.0000000000000D+00
   335  3.3400000000000D+00  0.0000000000000D+00  0.0000000000000D+00
   336  3.3500000000000D+00  0.0000000000000D+00  0.0000000000000D+00
   337  3.3600000000000D+00  0.0000000000000D+00  0.0000000000000D+00
   338  3.3700000000000D+00  0.0000000000000D+00  0.0000000000000D+00
   339  3.3800000000000D+00  0.0000000000000D+00  0.0000000000000D+00
   340  3.3900000000000D+00  0.0000000000000D+00  0.0000000000000D+00
   341  3.4000000000000D+00  0.0000000000000D+00  0.0000000000000D+00
   342  3.4100000000000D+00  0.0000000000000D+00  0.0000000000000D+00
   343  3.4200000000000D+00  0.0000000000000D+00  0.0000000000000D+00
   344  3.4300000000000D+00  0.0000000000000D+00  0.0000000000000D+00
   345  3.4400000000000D+00  0.0000000000000D+00  0.0000000000000D+00
   346  3.4500000000000D+00  0.0000000000000D+00  0.0000000000000D+00
   347  3.4600000000000D+00  0.0000000000000D+00  0.0000000000000D+00
   348  3.4700000000000D+00  0.0000000000000D+00  0.0000000000000D+00
   349  3.4800000000000D+00  0.0000000000000D+00  0.0000000000000D+00
   350  3.4900000000000D+00  0.0000000000000D+00  0.0000000000000D+00
   351  3.5000000000000D+00  0.0000000000000D+00  0.0000000000000D+00
   352  3.5100000000000D+00  0.0000000000000D+00  0.0000000000000D+00
   353  3.5200000000000D+00  0.0000000000000D+00  0.0000000000000D+00
   354  3.5300000000000D+00  0.0000000000000D+00  0.0000000000000D+00
   355  3.5400000000000D+00  0.0000000000000D+00  0.0000000000000D+00
   356  3.5500000000000D+00  0.0000000000000D+00  0.0000000000000D+00
   357  3.5600000000000D+00  0.0000000000000D+00  0.0000000000000D+00
   358  3.5700000000000D+00  0.0000000000000D+00  0.0000000000000D+00
   359  3.5800000000000D+00  0.0000000000000D+00  0.0000000000000D+00
   360  3.5900000000000D+00  0.0000000000000D+00  0.0000000000000D+00
   361  3.6000000000000D+00  0.0000000000000D+00  0.0000000000000D+00
   362  3.6100000000000D+00  0.0000000000000D+00  0.0000000000000D+00
   363  3.6200000000000D+00  0.0000000000000D+00  0.0000000000000D+00
   364  3.6300000000000D+00  0.0000000000000D+00  0.0000000000000D+00
   365  3.6400000000000D+00  0.0000000000000D+00  0.0000000000000D+00
   366  3.6500000000000D+00  0.0000000000000D+00  0.0000000000000D+00
   367  3.6600000000000D+00  0.0000000000000D+00  0.0000000000000D+00
   368  3.6700000000000D+00  0.0000000000000D+00  0.0000000000000D+00
   369  3.6800000000000D+00  0.0000000000000D+00  0.0000000000000D+00
   370  3.6900000000000D+00  0.0000000000000D+00  0.0000000000000D+00
   371  3.7000000000000D+00  0.0000000000000D+00  0.0000000000000D+00
   372  3.7100000000000D+00  0.0000000000000D+00  0.0000000000000D+00
   373  3.7200000000000D+00  0.0000000000000D+00  0.0000000000000D+00
   374  3.7300000000000D+00  0.0000000000000D+00  0.0000000000000D+00
   375  3.7400000000000D+00  0.0000000000000D+00  0.0000000000000D+00
   376  3.7500000000000D+00  0.0000000000000D+00  0.0000000000000D+00
   377  3.7600000000000D+00  0.0000000000000D+00  0.0000000000000D+00
   378  3.7700000000000D+00  0.0000000000000D+00  0.0000000000000D+00
   379  3.7800000000000D+00  0.0000000000000D+00  0.0000000000000D+00
   380  3.7900000000000D+00  0.0000000000000D+00  0.0000000000000D+00
   381  3.8000000000000D+00  0.0000000000000D+00  0.0000000000000D+00
   382  3.8100000000000D+00  0.0000000000000D+00  0.0000000000000D+00
   383  3.8200000000000D+00  0.0000000000000D+00  0.0000000000000D+00
   384  3.8300000000000D+00  0.0000000000000D+00  0.0000000000000D+00
   385  3.8400000000000D+00  0.0000000000000D+00  0.0000000000000D+00
   386  3.8500000000000D+00  0.0000000000000D+00  0.0000000000000D+00
   387  3.8600000000000D+00  0.0000000000000D+00  0.0000000000000D+00
   388  3.8700000000000D+00  0.0000000000000D+00  0.0000000000000D+00
   389  3.8800000000000D+00  0.0000000000000D+00  0.0000000000000D+00
   390  3.8900000000000D+00  0.0000000000000D+00  0.0000000000000D+00
   391  3.9000000000000D+00  0.0000000000000D+00  0.0000000000000D+00
   392  3.9100000000000D+00  0.0000000000000D+00  0.0000000000000D+00
   393  3.9200000000000D+00  0.0000000000000D+00  0.0000000000000D+00
   394  3.9300000000000D+00  0.0000000000000D+00  0.0000000000000D+00
   395  3.9400000000000D+00  0.0000000000000D+00  0.0000000000000D+00
   396  3.9500000000000D+00  0.0000000000000D+00  0.0000000000000D+00
   397  3.9600000000000D+00  0.0000000000000D+00  0.0000000000000D+00
   398  3.9700000000000D+00  0.0000000000000D+00  0.0000000000000D+00
   399  3.9800000000000D+00  0.0000000000000D+00  0.0000000000000D+00
   400  3.9900000000000D+00  0.0000000000000D+00  0.0000000000000D+00
   401  4.0000000000000D+00  0.0000000000000D+00  0.0000000000000D+00
   402  4.0100000000000D+00  0.0000000000000D+00  0.0000000000000D+00
   403  4.0200000000000D+00  0.0000000000000D+00  0.0000000000000D+00
   404  4.0300000000000D+00  0.0000000000000D+00  0.0000000000000D+00
   405  4.0400000000000D+00  0.0000000000000D+00  0.0000000000000D+00
   406  4.0500000000000D+00  0.0000000000000D+00  0.0000000000000D+00
   407  4.0600000000000D+00  0.0000000000000D+00  0.0000000000000D+00
   408  4.0700000000000D+00  0.0000000000000D+00  0.0000000000000D+00
   409  4.0800000000000D+00  0.0000000000000D+00  0.0000000000000D+00
   410  4.0900000000000D+00  0.0000000000000D+00  0.0000000000000D+00
   411  4.1000000000000D+00  0.0000000000000D+00  0.0000000000000D+00
   412  4.1100000000000D+00  0.0000000000000D+00  0.0000000000000D+00
   413  4.1200000000000D+00  0.0000000000000D+00  0.0000000000000D+00
   414  4.1300000000000D+00  0.0000000000000D+00  0.0000000000000D+00
   415  4.1400000000000D+00  0.0000000000000D+00  0.0000000000000D+00
   416  4.1500000000000D+00  0.0000000000000D+00  0.0000000000000D+00
   417  4.1600000000000D+00  0.0000000000000D+00  0.0000000000000D+00
   418  4.1700000000000D+00  0.0000000000000D+00  0.0000000000000D+00
   419  4.1800000000000D+00  0.0000000000000D+00  0.0000000000000D+00
   420  4.1900000000000D+00  0.0000000000000D+00  0.0000000000000D+00
   421  4.2000000000000D+00  0.0000000000000D+00  0.0000000000000D+00
   422  4.2100000000000D+00  0.0000000000000D+00  0.0000000000000D+00