Sb    ONCVPSP-3.3.0  r_core=   1.81962   2.12485   1.81962
     51.0000     15.0000      220117    zatom,zion,pspd
     8      11   2     4   600     0    pspcod,pspxc,lmax,lloc,mmax,r2well
  5.99000000  0.00000000  0.00000000    rchrg fchrg qchrg
     2     2     2     0     0    nproj
     1     1           extension_switch
   0                         1.1006548671560D+01  1.8617651388779D+00
     1  0.0000000000000D+00 -1.2170447982740D-10  1.4762918665312D-10
     2  1.0000000000000D-02  5.1124500486712D-02 -4.3352365057264D-02
     3  2.0000000000000D-02  1.0202953948783D-01 -8.6428272017399D-02
     4  3.0000000000000D-02  1.5249688336496D-01 -1.2895278073679D-01
     5  4.0000000000000D-02  2.0231074765339D-01 -1.7065397903559D-01
     6  5.0000000000000D-02  2.5125900537782D-01 -2.1126447685874D-01
     7  6.0000000000000D-02  2.9913437592855D-01 -2.5052287675591D-01
     8  7.0000000000000D-02  3.4573558816101D-01 -2.8817521295989D-01
     9  8.0000000000000D-02  3.9086851150300D-01 -3.2397635149019D-01
    10  9.0000000000000D-02  4.3434724900555D-01 -3.5769134389250D-01
    11  1.0000000000000D-01  4.7599518645352D-01 -3.8909672744303D-01
    12  1.1000000000000D-01  5.1564599186085D-01 -4.1798176490044D-01
    13  1.2000000000000D-01  5.5314455991208D-01 -4.4414961717458D-01
    14  1.3000000000000D-01  5.8834789617507D-01 -4.6741844260125D-01
    15  1.4000000000000D-01  6.2112593619918D-01 -4.8762241686262D-01
    16  1.5000000000000D-01  6.5136229492734D-01 -5.0461266797440D-01
    17  1.6000000000000D-01  6.7895494218832D-01 -5.1825812117051D-01
    18  1.7000000000000D-01  7.0381680039571D-01 -5.2844624895290D-01
    19  1.8000000000000D-01  7.2587626096136D-01 -5.3508372203674D-01
    20  1.9000000000000D-01  7.4507761633188D-01 -5.3809695740739D-01
    21  2.0000000000000D-01  7.6138140497553D-01 -5.3743256021330D-01
    22  2.1000000000000D-01  7.7476466708155D-01 -5.3305765674693D-01
    23  2.2000000000000D-01  7.8522110918397D-01 -5.2496011631061D-01
    24  2.3000000000000D-01  7.9276117638330D-01 -5.1314866032527D-01
    25  2.4000000000000D-01  7.9741203131269D-01 -4.9765285761266D-01
    26  2.5000000000000D-01  7.9921743947591D-01 -4.7852300536612D-01
    27  2.6000000000000D-01  7.9823756107235D-01 -4.5582989591583D-01
    28  2.7000000000000D-01  7.9454864991599D-01 -4.2966446999173D-01
    29  2.8000000000000D-01  7.8824266054868D-01 -4.0013735778564D-01
    30  2.9000000000000D-01  7.7942676514191D-01 -3.6737830971322D-01
    31  3.0000000000000D-01  7.6822278227079D-01 -3.3153551937060D-01
    32  3.1000000000000D-01  7.5476652013022D-01 -2.9277484177030D-01
    33  3.2000000000000D-01  7.3920703723935D-01 -2.5127891051896D-01
    34  3.3000000000000D-01  7.2170582414874D-01 -2.0724615816763D-01
    35  3.4000000000000D-01  7.0243591011812D-01 -1.6088974451568D-01
    36  3.5000000000000D-01  6.8158089917228D-01 -1.1243639818304D-01
    37  3.6000000000000D-01  6.5933394036384D-01 -6.2125177276562D-02
    38  3.7000000000000D-01  6.3589663747270D-01 -1.0206155463364D-02
    39  3.8000000000000D-01  6.1147790375071D-01  4.3060959776539D-02
    40  3.9000000000000D-01  5.8629276767324D-01  9.7408269516813D-02
    41  4.0000000000000D-01  5.6056113598597D-01  1.5256117877288D-01
    42  4.1000000000000D-01  5.3450652063146D-01  2.0823993695359D-01
    43  4.2000000000000D-01  5.0835473640558D-01  2.6416121509626D-01
    44  4.3000000000000D-01  4.8233257642475D-01  3.2003971132391D-01
    45  4.4000000000000D-01  4.5666647268162D-01  3.7558977572478D-01
    46  4.5000000000000D-01  4.3158114912511D-01  4.3052704566111D-01
    47  4.6000000000000D-01  4.0729827482091D-01  4.8457008236783D-01
    48  4.7000000000000D-01  3.8403512482901D-01  5.3744199960350D-01
    49  4.8000000000000D-01  3.6200325647264D-01  5.8887207506892D-01
    50  4.9000000000000D-01  3.4140720867076D-01  6.3859733531093D-01
    51  5.0000000000000D-01  3.2244323195849D-01  6.8636410488529D-01
    52  5.1000000000000D-01  3.0529805673091D-01  7.3192951066019D-01
    53  5.2000000000000D-01  2.9014770711121D-01  7.7506293230306D-01
    54  5.3000000000000D-01  2.7715636766690D-01  8.1554739020759D-01
    55  5.4000000000000D-01  2.6647530997630D-01  8.5318086238513D-01
    56  5.5000000000000D-01  2.5824188578355D-01  8.8777752216327D-01
    57  5.6000000000000D-01  2.5257859317295D-01  9.1916888890593D-01
    58  5.7000000000000D-01  2.4959222184610D-01  9.4720488438879D-01
    59  5.8000000000000D-01  2.4937308319634D-01  9.7175478793396D-01
    60  5.9000000000000D-01  2.5199433044901D-01  9.9270808392273D-01
    61  6.0000000000000D-01  2.5751137367171D-01  1.0099751958662D+00
    62  6.1000000000000D-01  2.6596139396207D-01  1.0234881018138D+00
    63  6.2000000000000D-01  2.7736296058831D-01  1.0332008265238D+00
    64  6.3000000000000D-01  2.9171575430076D-01  1.0390898064914D+00
    65  6.4000000000000D-01  3.0900039944300D-01  1.0411541246445D+00
    66  6.5000000000000D-01  3.2917840688248D-01  1.0394156122514D+00
    67  6.6000000000000D-01  3.5219222915032D-01  1.0339188163469D+00
    68  6.7000000000000D-01  3.7796542853037D-01  1.0247308317670D+00
    69  6.8000000000000D-01  4.0640295817726D-01  1.0119409976823D+00
    70  6.9000000000000D-01  4.3739155567462D-01  9.9566045932412D-01
    71  7.0000000000000D-01  4.7080024776532D-01  9.7602159642175D-01
    72  7.1000000000000D-01  5.0648096431053D-01  9.5317732068047D-01
    73  7.2000000000000D-01  5.4426925885832D-01  9.2730024544843D-01
    74  7.3000000000000D-01  5.8398513253604D-01  8.9858173152375D-01
    75  7.4000000000000D-01  6.2543395732298D-01  8.6723081384633D-01
    76  7.5000000000000D-01  6.6840749411888D-01  8.3347301459229D-01
    77  7.6000000000000D-01  7.1268500040261D-01  7.9754904893710D-01
    78  7.7000000000000D-01  7.5803442167815D-01  7.5971343047356D-01
    79  7.8000000000000D-01  8.0421366033499D-01  7.2023298395618D-01
    80  7.9000000000000D-01  8.5097191501333D-01  6.7938527369023D-01
    81  8.0000000000000D-01  8.9805108306201D-01  6.3745695648691D-01
    82  8.1000000000000D-01  9.4518721821737D-01  5.9474206865867D-01
    83  8.2000000000000D-01  9.9211203521034D-01  5.5154025703361D-01
    84  8.3000000000000D-01  1.0385544526385D+00  5.0815496441109D-01
    85  8.4000000000000D-01  1.0842421651170D+00  4.6489158026692D-01
    86  8.5000000000000D-01  1.1289032354521D+00  4.2205556783836D-01
    87  8.6000000000000D-01  1.1722676973653D+00  3.7995057897421D-01
    88  8.7000000000000D-01  1.2140691591375D+00  3.3887656832180D-01
    89  8.8000000000000D-01  1.2540463984442D+00  2.9912791853773D-01
    90  8.9000000000000D-01  1.2919449386106D+00  2.6099158825120D-01
    91  9.0000000000000D-01  1.3275185965396D+00  2.2474529447680D-01
    92  9.1000000000000D-01  1.3605309926474D+00  1.9065574106660D-01
    93  9.2000000000000D-01  1.3907570132889D+00  1.5897690460794D-01
    94  9.3000000000000D-01  1.4179842163606D+00  1.2994838891864D-01
    95  9.4000000000000D-01  1.4420141710397D+00  1.0379385895604D-01
    96  9.5000000000000D-01  1.4626637229470D+00  8.0719564553730D-02
    97  9.6000000000000D-01  1.4797661764100D+00  6.0912963922594D-02
    98  9.7000000000000D-01  1.4931723859493D+00  4.4541456307484D-02
    99  9.8000000000000D-01  1.5027517496101D+00  3.1751232579106D-02
   100  9.9000000000000D-01  1.5083930973170D+00  2.2666251866249D-02
   101  1.0000000000000D+00  1.5100054680300D+00  1.7387351598671D-02
   102  1.0100000000000D+00  1.5075187701388D+00  1.5991497529949D-02
   103  1.0200000000000D+00  1.5008843201937D+00  1.8531179507202D-02
   104  1.0300000000000D+00  1.4900752558405D+00  2.5033957814751D-02
   105  1.0400000000000D+00  1.4750868195616D+00  3.5502164032662D-02
   106  1.0500000000000D+00  1.4559365106206D+00  4.9912759379020D-02
   107  1.0600000000000D+00  1.4326641034434D+00  6.8217352497356D-02
   108  1.0700000000000D+00  1.4053315314731D+00  9.0342377670739D-02
   109  1.0800000000000D+00  1.3740226363866D+00  1.1618943341565D-01
   110  1.0900000000000D+00  1.3388427834546D+00  1.4563578032681D-01
   111  1.1000000000000D+00  1.2999183446323D+00  1.7853499606844D-01
   112  1.1100000000000D+00  1.2573960519008D+00  2.1471778428084D-01
   113  1.1200000000000D+00  1.2114422240797D+00  2.5399293332258D-01
   114  1.1300000000000D+00  1.1622418713317D+00  2.9614841956599D-01
   115  1.1400000000000D+00  1.1099976822799D+00  3.4095264911441D-01
   116  1.1500000000000D+00  1.0549288995288D+00  3.8815583076325D-01
   117  1.1600000000000D+00  9.9727008997765D-01  4.3749147231111D-01
   118  1.1700000000000D+00  9.3726981721038D-01  4.8867799124513D-01
   119  1.1800000000000D+00  8.7518922382288D-01  5.4142043013718D-01
   120  1.1900000000000D+00  8.1130053223720D-01  5.9541226626315D-01
   121  1.2000000000000D+00  7.4588547294601D-01  6.5033730448470D-01
   122  1.2100000000000D+00  6.7923364993315D-01  7.0587164147761D-01
   123  1.2200000000000D+00  6.1164085329284D-01  7.6168568906484D-01
   124  1.2300000000000D+00  5.4340732942756D-01  8.1744624398854D-01
   125  1.2400000000000D+00  4.7483601967968D-01  8.7281859089599D-01
   126  1.2500000000000D+00  4.0623077844233D-01  9.2746862509910D-01
   127  1.2600000000000D+00  3.3789458192188D-01  9.8106498152344D-01
   128  1.2700000000000D+00  2.7012773895888D-01  1.0332811559935D+00
   129  1.2800000000000D+00  2.0322611527489D-01  1.0837976050726D+00
   130  1.2900000000000D+00  1.3747938245573D-01  1.1323038107515D+00
   131  1.3000000000000D+00  7.3169303039032D-02  1.1785002962276D+00
   132  1.3100000000000D+00  1.0568062607283D-02  1.2221005796100D+00
   133  1.3200000000000D+00 -5.0063340230758D-02  1.2628330524130D+00
   134  1.3300000000000D+00 -1.0847663535467D-01  1.3004427700414D+00
   135  1.3400000000000D+00 -1.6443774447388D-01  1.3346931426575D+00
   136  1.3500000000000D+00 -2.1772815622019D-01  1.3653675143088D+00
   137  1.3600000000000D+00 -2.6814620408746D-01  1.3922706196643D+00
   138  1.3700000000000D+00 -3.1550823924618D-01  1.4152299088502D+00
   139  1.3800000000000D+00 -3.5964968931861D-01  1.4340967297208D+00
   140  1.3900000000000D+00 -4.0042599720421D-01  1.4487473606103D+00
   141  1.4000000000000D+00 -4.3771343299592D-01  1.4590838853124D+00
   142  1.4100000000000D+00 -4.7140977304491D-01  1.4650349032959D+00
   143  1.4200000000000D+00 -5.0143484299240D-01  1.4665560715551D+00
   144  1.4300000000000D+00 -5.2773091870523D-01  1.4636304709549D+00
   145  1.4400000000000D+00 -5.5026298433535D-01  1.4562687964223D+00
   146  1.4500000000000D+00 -5.6901884434652D-01  1.4445093674085D+00
   147  1.4600000000000D+00 -5.8400908813409D-01  1.4284179572463D+00
   148  1.4700000000000D+00 -5.9526690903037D-01  1.4080874438896D+00
   149  1.4800000000000D+00 -6.0284777537826D-01  1.3836372795049D+00
   150  1.4900000000000D+00 -6.0682895911414D-01  1.3552127858617D+00
   151  1.5000000000000D+00 -6.0730892129812D-01  1.3229842751382D+00
   152  1.5100000000000D+00 -6.0440656047672D-01  1.2871460036263D+00
   153  1.5200000000000D+00 -5.9826032750293D-01  1.2479149630587D+00
   154  1.5300000000000D+00 -5.8902721162939D-01  1.2055295157402D+00
   155  1.5400000000000D+00 -5.7688160604014D-01  1.1602478837211D+00
   156  1.5500000000000D+00 -5.6201405661795D-01  1.1123464969674D+00
   157  1.5600000000000D+00 -5.4462990565246D-01  1.0621182145807D+00
   158  1.5700000000000D+00 -5.2494783473591D-01  1.0098704261619D+00
   159  1.5800000000000D+00 -5.0319831902923D-01  9.5592304489891D-01
   160  1.5900000000000D+00 -4.7962200286573D-01  9.0060641418075D-01
   161  1.6000000000000D+00 -4.5446801411671D-01  8.4425917581285D-01
   162  1.6100000000000D+00 -4.2799216334344D-01  7.8722580140807D-01
   163  1.6200000000000D+00 -4.0045517839330D-01  7.2985446048178D-01
   164  1.6300000000000D+00 -3.7212098811560D-01  6.7249533376299D-01
   165  1.6400000000000D+00 -3.4325499164811D-01  6.1549877616629D-01
   166  1.6500000000000D+00 -3.1412239121863D-01  5.5921369423243D-01
   167  1.6600000000000D+00 -2.8498644714278D-01  5.0398551899709D-01
   168  1.6700000000000D+00 -2.5610668246099D-01  4.5015380573199D-01
   169  1.6800000000000D+00 -2.2773715309372D-01  3.9805009485393D-01
   170  1.6900000000000D+00 -2.0012475107334D-01  3.4799581732511D-01
   171  1.7000000000000D+00 -1.7350755147349D-01  3.0030022632453D-01
   172  1.7100000000000D+00 -1.4811321878804D-01  2.5525841956817D-01
   173  1.7200000000000D+00 -1.2415748162995D-01  2.1314944389184D-01
   174  1.7300000000000D+00 -1.0184268406908D-01  1.7423449857948D-01
   175  1.7400000000000D+00 -8.1356425336506D-02  1.3875525065382D-01
   176  1.7500000000000D+00 -6.2870293924022D-02  1.0693226934962D-01
   177  1.7600000000000D+00 -4.6546334067457D-02  7.8976432779277D-02
   178  1.7700000000000D+00 -3.2510038342001D-02  5.5043937444398D-02
   179  1.7800000000000D+00 -2.0830553148512D-02  3.5203513686612D-02
   180  1.7900000000000D+00 -1.1653062414684D-02  1.9659333054934D-02
   181  1.8000000000000D+00 -5.2474929584529D-03  8.8328471502069D-03
   182  1.8100000000000D+00 -1.5820849436898D-03  2.6468553555405D-03
   183  1.8200000000000D+00 -5.5374964220896D-06 -7.5230112233216D-06
   184  1.8300000000000D+00  2.8328728955926D-04 -4.8576021626883D-04
   185  1.8400000000000D+00  4.1657665903035D-05 -7.0990446993731D-05
   186  1.8500000000000D+00 -9.1701243879599D-05  1.5619611179191D-04
   187  1.8600000000000D+00 -4.0119906065277D-05  6.8248641077408D-05
   188  1.8700000000000D+00  1.4038650803190D-05 -2.4035745544857D-05
   189  1.8800000000000D+00  1.1818354586054D-05 -2.0217036578518D-05
   190  1.8900000000000D+00  6.2471745089797D-08 -7.6245971139270D-08
   191  1.9000000000000D+00  9.3835521474242D-08 -1.1452506171997D-07
   192  1.9100000000000D+00  0.0000000000000D+00  0.0000000000000D+00
   193  1.9200000000000D+00  0.0000000000000D+00  0.0000000000000D+00
   194  1.9300000000000D+00  0.0000000000000D+00  0.0000000000000D+00
   195  1.9400000000000D+00  0.0000000000000D+00  0.0000000000000D+00
   196  1.9500000000000D+00  0.0000000000000D+00  0.0000000000000D+00
   197  1.9600000000000D+00  0.0000000000000D+00  0.0000000000000D+00
   198  1.9700000000000D+00  0.0000000000000D+00  0.0000000000000D+00
   199  1.9800000000000D+00  0.0000000000000D+00  0.0000000000000D+00
   200  1.9900000000000D+00  0.0000000000000D+00  0.0000000000000D+00
   201  2.0000000000000D+00  0.0000000000000D+00  0.0000000000000D+00
   202  2.0100000000000D+00  0.0000000000000D+00  0.0000000000000D+00
   203  2.0200000000000D+00  0.0000000000000D+00  0.0000000000000D+00
   204  2.0300000000000D+00  0.0000000000000D+00  0.0000000000000D+00
   205  2.0400000000000D+00  0.0000000000000D+00  0.0000000000000D+00
   206  2.0500000000000D+00  0.0000000000000D+00  0.0000000000000D+00
   207  2.0600000000000D+00  0.0000000000000D+00  0.0000000000000D+00
   208  2.0700000000000D+00  0.0000000000000D+00  0.0000000000000D+00
   209  2.0800000000000D+00  0.0000000000000D+00  0.0000000000000D+00
   210  2.0900000000000D+00  0.0000000000000D+00  0.0000000000000D+00
   211  2.1000000000000D+00  0.0000000000000D+00  0.0000000000000D+00
   212  2.1100000000000D+00  0.0000000000000D+00  0.0000000000000D+00
   213  2.1200000000000D+00  0.0000000000000D+00  0.0000000000000D+00
   214  2.1300000000000D+00  0.0000000000000D+00  0.0000000000000D+00
   215  2.1400000000000D+00  0.0000000000000D+00  0.0000000000000D+00
   216  2.1500000000000D+00  0.0000000000000D+00  0.0000000000000D+00
   217  2.1600000000000D+00  0.0000000000000D+00  0.0000000000000D+00
   218  2.1700000000000D+00  0.0000000000000D+00  0.0000000000000D+00
   219  2.1800000000000D+00  0.0000000000000D+00  0.0000000000000D+00
   220  2.1900000000000D+00  0.0000000000000D+00  0.0000000000000D+00
   221  2.2000000000000D+00  0.0000000000000D+00  0.0000000000000D+00
   222  2.2100000000000D+00  0.0000000000000D+00  0.0000000000000D+00
   223  2.2200000000000D+00  0.0000000000000D+00  0.0000000000000D+00
   224  2.2300000000000D+00  0.0000000000000D+00  0.0000000000000D+00
   225  2.2400000000000D+00  0.0000000000000D+00  0.0000000000000D+00
   226  2.2500000000000D+00  0.0000000000000D+00  0.0000000000000D+00
   227  2.2600000000000D+00  0.0000000000000D+00  0.0000000000000D+00
   228  2.2700000000000D+00  0.0000000000000D+00  0.0000000000000D+00
   229  2.2800000000000D+00  0.0000000000000D+00  0.0000000000000D+00
   230  2.2900000000000D+00  0.0000000000000D+00  0.0000000000000D+00
   231  2.3000000000000D+00  0.0000000000000D+00  0.0000000000000D+00
   232  2.3100000000000D+00  0.0000000000000D+00  0.0000000000000D+00
   233  2.3200000000000D+00  0.0000000000000D+00  0.0000000000000D+00
   234  2.3300000000000D+00  0.0000000000000D+00  0.0000000000000D+00
   235  2.3400000000000D+00  0.0000000000000D+00  0.0000000000000D+00
   236  2.3500000000000D+00  0.0000000000000D+00  0.0000000000000D+00
   237  2.3600000000000D+00  0.0000000000000D+00  0.0000000000000D+00
   238  2.3700000000000D+00  0.0000000000000D+00  0.0000000000000D+00
   239  2.3800000000000D+00  0.0000000000000D+00  0.0000000000000D+00
   240  2.3900000000000D+00  0.0000000000000D+00  0.0000000000000D+00
   241  2.4000000000000D+00  0.0000000000000D+00  0.0000000000000D+00
   242  2.4100000000000D+00  0.0000000000000D+00  0.0000000000000D+00
   243  2.4200000000000D+00  0.0000000000000D+00  0.0000000000000D+00
   244  2.4300000000000D+00  0.0000000000000D+00  0.0000000000000D+00
   245  2.4400000000000D+00  0.0000000000000D+00  0.0000000000000D+00
   246  2.4500000000000D+00  0.0000000000000D+00  0.0000000000000D+00
   247  2.4600000000000D+00  0.0000000000000D+00  0.0000000000000D+00
   248  2.4700000000000D+00  0.0000000000000D+00  0.0000000000000D+00
   249  2.4800000000000D+00  0.0000000000000D+00  0.0000000000000D+00
   250  2.4900000000000D+00  0.0000000000000D+00  0.0000000000000D+00
   251  2.5000000000000D+00  0.0000000000000D+00  0.0000000000000D+00
   252  2.5100000000000D+00  0.0000000000000D+00  0.0000000000000D+00
   253  2.5200000000000D+00  0.0000000000000D+00  0.0000000000000D+00
   254  2.5300000000000D+00  0.0000000000000D+00  0.0000000000000D+00
   255  2.5400000000000D+00  0.0000000000000D+00  0.0000000000000D+00
   256  2.5500000000000D+00  0.0000000000000D+00  0.0000000000000D+00
   257  2.5600000000000D+00  0.0000000000000D+00  0.0000000000000D+00
   258  2.5700000000000D+00  0.0000000000000D+00  0.0000000000000D+00
   259  2.5800000000000D+00  0.0000000000000D+00  0.0000000000000D+00
   260  2.5900000000000D+00  0.0000000000000D+00  0.0000000000000D+00
   261  2.6000000000000D+00  0.0000000000000D+00  0.0000000000000D+00
   262  2.6100000000000D+00  0.0000000000000D+00  0.0000000000000D+00
   263  2.6200000000000D+00  0.0000000000000D+00  0.0000000000000D+00
   264  2.6300000000000D+00  0.0000000000000D+00  0.0000000000000D+00
   265  2.6400000000000D+00  0.0000000000000D+00  0.0000000000000D+00
   266  2.6500000000000D+00  0.0000000000000D+00  0.0000000000000D+00
   267  2.6600000000000D+00  0.0000000000000D+00  0.0000000000000D+00
   268  2.6700000000000D+00  0.0000000000000D+00  0.0000000000000D+00
   269  2.6800000000000D+00  0.0000000000000D+00  0.0000000000000D+00
   270  2.6900000000000D+00  0.0000000000000D+00  0.0000000000000D+00
   271  2.7000000000000D+00  0.0000000000000D+00  0.0000000000000D+00
   272  2.7100000000000D+00  0.0000000000000D+00  0.0000000000000D+00
   273  2.7200000000000D+00  0.0000000000000D+00  0.0000000000000D+00
   274  2.7300000000000D+00  0.0000000000000D+00  0.0000000000000D+00
   275  2.7400000000000D+00  0.0000000000000D+00  0.0000000000000D+00
   276  2.7500000000000D+00  0.0000000000000D+00  0.0000000000000D+00
   277  2.7600000000000D+00  0.0000000000000D+00  0.0000000000000D+00
   278  2.7700000000000D+00  0.0000000000000D+00  0.0000000000000D+00
   279  2.7800000000000D+00  0.0000000000000D+00  0.0000000000000D+00
   280  2.7900000000000D+00  0.0000000000000D+00  0.0000000000000D+00
   281  2.8000000000000D+00  0.0000000000000D+00  0.0000000000000D+00
   282  2.8100000000000D+00  0.0000000000000D+00  0.0000000000000D+00
   283  2.8200000000000D+00  0.0000000000000D+00  0.0000000000000D+00
   284  2.8300000000000D+00  0.0000000000000D+00  0.0000000000000D+00
   285  2.8400000000000D+00  0.0000000000000D+00  0.0000000000000D+00
   286  2.8500000000000D+00  0.0000000000000D+00  0.0000000000000D+00
   287  2.8600000000000D+00  0.0000000000000D+00  0.0000000000000D+00
   288  2.8700000000000D+00  0.0000000000000D+00  0.0000000000000D+00
   289  2.8800000000000D+00  0.0000000000000D+00  0.0000000000000D+00
   290  2.8900000000000D+00  0.0000000000000D+00  0.0000000000000D+00
   291  2.9000000000000D+00  0.0000000000000D+00  0.0000000000000D+00
   292  2.9100000000000D+00  0.0000000000000D+00  0.0000000000000D+00
   293  2.9200000000000D+00  0.0000000000000D+00  0.0000000000000D+00
   294  2.9300000000000D+00  0.0000000000000D+00  0.0000000000000D+00
   295  2.9400000000000D+00  0.0000000000000D+00  0.0000000000000D+00
   296  2.9500000000000D+00  0.0000000000000D+00  0.0000000000000D+00
   297  2.9600000000000D+00  0.0000000000000D+00  0.0000000000000D+00
   298  2.9700000000000D+00  0.0000000000000D+00  0.0000000000000D+00
   299  2.9800000000000D+00  0.0000000000000D+00  0.0000000000000D+00
   300  2.9900000000000D+00  0.0000000000000D+00  0.0000000000000D+00
   301  3.0000000000000D+00  0.0000000000000D+00  0.0000000000000D+00
   302  3.0100000000000D+00  0.0000000000000D+00  0.0000000000000D+00
   303  3.0200000000000D+00  0.0000000000000D+00  0.0000000000000D+00
   304  3.0300000000000D+00  0.0000000000000D+00  0.0000000000000D+00
   305  3.0400000000000D+00  0.0000000000000D+00  0.0000000000000D+00
   306  3.0500000000000D+00  0.0000000000000D+00  0.0000000000000D+00
   307  3.0600000000000D+00  0.0000000000000D+00  0.0000000000000D+00
   308  3.0700000000000D+00  0.0000000000000D+00  0.0000000000000D+00
   309  3.0800000000000D+00  0.0000000000000D+00  0.0000000000000D+00
   310  3.0900000000000D+00  0.0000000000000D+00  0.0000000000000D+00
   311  3.1000000000000D+00  0.0000000000000D+00  0.0000000000000D+00
   312  3.1100000000000D+00  0.0000000000000D+00  0.0000000000000D+00
   313  3.1200000000000D+00  0.0000000000000D+00  0.0000000000000D+00
   314  3.1300000000000D+00  0.0000000000000D+00  0.0000000000000D+00
   315  3.1400000000000D+00  0.0000000000000D+00  0.0000000000000D+00
   316  3.1500000000000D+00  0.0000000000000D+00  0.0000000000000D+00
   317  3.1600000000000D+00  0.0000000000000D+00  0.0000000000000D+00
   318  3.1700000000000D+00  0.0000000000000D+00  0.0000000000000D+00
   319  3.1800000000000D+00  0.0000000000000D+00  0.0000000000000D+00
   320  3.1900000000000D+00  0.0000000000000D+00  0.0000000000000D+00
   321  3.2000000000000D+00  0.0000000000000D+00  0.0000000000000D+00
   322  3.2100000000000D+00  0.0000000000000D+00  0.0000000000000D+00
   323  3.2200000000000D+00  0.0000000000000D+00  0.0000000000000D+00
   324  3.2300000000000D+00  0.0000000000000D+00  0.0000000000000D+00
   325  3.2400000000000D+00  0.0000000000000D+00  0.0000000000000D+00
   326  3.2500000000000D+00  0.0000000000000D+00  0.0000000000000D+00
   327  3.2600000000000D+00  0.0000000000000D+00  0.0000000000000D+00
   328  3.2700000000000D+00  0.0000000000000D+00  0.0000000000000D+00
   329  3.2800000000000D+00  0.0000000000000D+00  0.0000000000000D+00
   330  3.2900000000000D+00  0.0000000000000D+00  0.0000000000000D+00
   331  3.3000000000000D+00  0.0000000000000D+00  0.0000000000000D+00
   332  3.3100000000000D+00  0.0000000000000D+00  0.0000000000000D+00
   333  3.3200000000000D+00  0.0000000000000D+00  0.0000000000000D+00
   334  3.3300000000000D+00  0.0000000000000D+00  0.0000000000000D+00
   335  3.3400000000000D+00  0.0000000000000D+00  0.0000000000000D+00
   336  3.3500000000000D+00  0.0000000000000D+00  0.0000000000000D+00
   337  3.3600000000000D+00  0.0000000000000D+00  0.0000000000000D+00
   338  3.3700000000000D+00  0.0000000000000D+00  0.0000000000000D+00
   339  3.3800000000000D+00  0.0000000000000D+00  0.0000000000000D+00
   340  3.3900000000000D+00  0.0000000000000D+00  0.0000000000000D+00
   341  3.4000000000000D+00  0.0000000000000D+00  0.0000000000000D+00
   342  3.4100000000000D+00  0.0000000000000D+00  0.0000000000000D+00
   343  3.4200000000000D+00  0.0000000000000D+00  0.0000000000000D+00
   344  3.4300000000000D+00  0.0000000000000D+00  0.0000000000000D+00
   345  3.4400000000000D+00  0.0000000000000D+00  0.0000000000000D+00
   346  3.4500000000000D+00  0.0000000000000D+00  0.0000000000000D+00
   347  3.4600000000000D+00  0.0000000000000D+00  0.0000000000000D+00
   348  3.4700000000000D+00  0.0000000000000D+00  0.0000000000000D+00
   349  3.4800000000000D+00  0.0000000000000D+00  0.0000000000000D+00
   350  3.4900000000000D+00  0.0000000000000D+00  0.0000000000000D+00
   351  3.5000000000000D+00  0.0000000000000D+00  0.0000000000000D+00
   352  3.5100000000000D+00  0.0000000000000D+00  0.0000000000000D+00
   353  3.5200000000000D+00  0.0000000000000D+00  0.0000000000000D+00
   354  3.5300000000000D+00  0.0000000000000D+00  0.0000000000000D+00
   355  3.5400000000000D+00  0.0000000000000D+00  0.0000000000000D+00
   356  3.5500000000000D+00  0.0000000000000D+00  0.0000000000000D+00
   357  3.5600000000000D+00  0.0000000000000D+00  0.0000000000000D+00
   358  3.5700000000000D+00  0.0000000000000D+00  0.0000000000000D+00
   359  3.5800000000000D+00  0.0000000000000D+00  0.0000000000000D+00
   360  3.5900000000000D+00  0.0000000000000D+00  0.0000000000000D+00
   361  3.6000000000000D+00  0.0000000000000D+00  0.0000000000000D+00
   362  3.6100000000000D+00  0.0000000000000D+00  0.0000000000000D+00
   363  3.6200000000000D+00  0.0000000000000D+00  0.0000000000000D+00
   364  3.6300000000000D+00  0.0000000000000D+00  0.0000000000000D+00
   365  3.6400000000000D+00  0.0000000000000D+00  0.0000000000000D+00
   366  3.6500000000000D+00  0.0000000000000D+00  0.0000000000000D+00
   367  3.6600000000000D+00  0.0000000000000D+00  0.0000000000000D+00
   368  3.6700000000000D+00  0.0000000000000D+00  0.0000000000000D+00
   369  3.6800000000000D+00  0.0000000000000D+00  0.0000000000000D+00
   370  3.6900000000000D+00  0.0000000000000D+00  0.0000000000000D+00
   371  3.7000000000000D+00  0.0000000000000D+00  0.0000000000000D+00
   372  3.7100000000000D+00  0.0000000000000D+00  0.0000000000000D+00
   373  3.7200000000000D+00  0.0000000000000D+00  0.0000000000000D+00
   374  3.7300000000000D+00  0.0000000000000D+00  0.0000000000000D+00
   375  3.7400000000000D+00  0.0000000000000D+00  0.0000000000000D+00
   376  3.7500000000000D+00  0.0000000000000D+00  0.0000000000000D+00
   377  3.7600000000000D+00  0.0000000000000D+00  0.0000000000000D+00
   378  3.7700000000000D+00  0.0000000000000D+00  0.0000000000000D+00
   379  3.7800000000000D+00  0.0000000000000D+00  0.0000000000000D+00
   380  3.7900000000000D+00  0.0000000000000D+00  0.0000000000000D+00
   381  3.8000000000000D+00  0.0000000000000D+00  0.0000000000000D+00
   382  3.8100000000000D+00  0.0000000000000D+00  0.0000000000000D+00
   383  3.8200000000000D+00  0.0000000000000D+00  0.0000000000000D+00
   384  3.8300000000000D+00  0.0000000000000D+00  0.0000000000000D+00
   385  3.8400000000000D+00  0.0000000000000D+00  0.0000000000000D+00
   386  3.8500000000000D+00  0.0000000000000D+00  0.0000000000000D+00
   387  3.8600000000000D+00  0.0000000000000D+00  0.0000000000000D+00
   388  3.8700000000000D+00  0.0000000000000D+00  0.0000000000000D+00
   389  3.8800000000000D+00  0.0000000000000D+00  0.0000000000000D+00
   390  3.8900000000000D+00  0.0000000000000D+00  0.0000000000000D+00
   391  3.9000000000000D+00  0.0000000000000D+00  0.0000000000000D+00
   392  3.9100000000000D+00  0.0000000000000D+00  0.0000000000000D+00
   393  3.9200000000000D+00  0.0000000000000D+00  0.0000000000000D+00
   394  3.9300000000000D+00  0.0000000000000D+00  0.0000000000000D+00
   395  3.9400000000000D+00  0.0000000000000D+00  0.0000000000000D+00
   396  3.9500000000000D+00  0.0000000000000D+00  0.0000000000000D+00
   397  3.9600000000000D+00  0.0000000000000D+00  0.0000000000000D+00
   398  3.9700000000000D+00  0.0000000000000D+00  0.0000000000000D+00
   399  3.9800000000000D+00  0.0000000000000D+00  0.0000000000000D+00
   400  3.9900000000000D+00  0.0000000000000D+00  0.0000000000000D+00
   401  4.0000000000000D+00  0.0000000000000D+00  0.0000000000000D+00
   402  4.0100000000000D+00  0.0000000000000D+00  0.0000000000000D+00
   403  4.0200000000000D+00  0.0000000000000D+00  0.0000000000000D+00
   404  4.0300000000000D+00  0.0000000000000D+00  0.0000000000000D+00
   405  4.0400000000000D+00  0.0000000000000D+00  0.0000000000000D+00
   406  4.0500000000000D+00  0.0000000000000D+00  0.0000000000000D+00
   407  4.0600000000000D+00  0.0000000000000D+00  0.0000000000000D+00
   408  4.0700000000000D+00  0.0000000000000D+00  0.0000000000000D+00
   409  4.0800000000000D+00  0.0000000000000D+00  0.0000000000000D+00
   410  4.0900000000000D+00  0.0000000000000D+00  0.0000000000000D+00
   411  4.1000000000000D+00  0.0000000000000D+00  0.0000000000000D+00
   412  4.1100000000000D+00  0.0000000000000D+00  0.0000000000000D+00
   413  4.1200000000000D+00  0.0000000000000D+00  0.0000000000000D+00
   414  4.1300000000000D+00  0.0000000000000D+00  0.0000000000000D+00
   415  4.1400000000000D+00  0.0000000000000D+00  0.0000000000000D+00
   416  4.1500000000000D+00  0.0000000000000D+00  0.0000000000000D+00
   417  4.1600000000000D+00  0.0000000000000D+00  0.0000000000000D+00
   418  4.1700000000000D+00  0.0000000000000D+00  0.0000000000000D+00
   419  4.1800000000000D+00  0.0000000000000D+00  0.0000000000000D+00
   420  4.1900000000000D+00  0.0000000000000D+00  0.0000000000000D+00
   421  4.2000000000000D+00  0.0000000000000D+00  0.0000000000000D+00
   422  4.2100000000000D+00  0.0000000000000D+00  0.0000000000000D+00