Sb    ONCVPSP-3.3.0  r_core=   1.30295   1.30295   1.50346
     51.0000     23.0000      220117    zatom,zion,pspd
     8      11   2     4   600     0    pspcod,pspxc,lmax,lloc,mmax,r2well
  5.99000000  0.00000000  0.00000000    rchrg fchrg qchrg
     2     2     2     0     0    nproj
     1     1           extension_switch
   0                         9.5186557076387D+00 -5.5560723650786D-01
     1  0.0000000000000D+00 -1.1518574982716D-10 -1.2172020391610D-08
     2  1.0000000000000D-02  8.7161673664511D-02  7.7889541088652D-02
     3  2.0000000000000D-02  1.7408653048836D-01  1.5500382896421D-01
     4  3.0000000000000D-02  2.6053855216732D-01  2.3057815974272D-01
     5  4.0000000000000D-02  3.4628331400098D-01  3.0386875046679D-01
     6  5.0000000000000D-02  4.3108877305190D-01  3.7416275842222D-01
     7  6.0000000000000D-02  5.1472604601729D-01  4.4078777993419D-01
     8  7.0000000000000D-02  5.9697017352169D-01  5.0312066972629D-01
     9  8.0000000000000D-02  6.7760086765455D-01  5.6059553409796D-01
    10  9.0000000000000D-02  7.5640323971685D-01  6.1271076597984D-01
    11  1.0000000000000D-01  8.3316850530390D-01  6.5903500709916D-01
    12  1.1000000000000D-01  9.0769466403448D-01  6.9921194172313D-01
    13  1.2000000000000D-01  9.7978715143688D-01  7.3296384740269D-01
    14  1.3000000000000D-01  1.0492594607157D+00  7.6009385043909D-01
    15  1.4000000000000D-01  1.1159337323480D+00  7.8048685704120D-01
    16  1.5000000000000D-01  1.1796413096877D+00  7.9410915491482D-01
    17  1.6000000000000D-01  1.2402232589906D+00  8.0100670390000D-01
    18  1.7000000000000D-01  1.2975308525062D+00  8.0130215781576D-01
    19  1.8000000000000D-01  1.3514260135111D+00  7.9519068245888D-01
    20  1.9000000000000D-01  1.4017817223791D+00  7.8293465631849D-01
    21  2.0000000000000D-01  1.4484823829954D+00  7.6485736061771D-01
    22  2.1000000000000D-01  1.4914241490177D+00  7.4133578340609D-01
    23  2.2000000000000D-01  1.5305152096694D+00  7.1279267827038D-01
    24  2.3000000000000D-01  1.5656760349105D+00  6.7968803150501D-01
    25  2.4000000000000D-01  1.5968395799780D+00  6.4251010204037D-01
    26  2.5000000000000D-01  1.6239514494067D+00  6.0176620586049D-01
    27  2.6000000000000D-01  1.6469700207426D+00  5.5797342090542D-01
    28  2.7000000000000D-01  1.6658665282406D+00  5.1164938945432D-01
    29  2.8000000000000D-01  1.6806251068943D+00  4.6330339268659D-01
    30  2.9000000000000D-01  1.6912427971832D+00  4.1342786655033D-01
    31  3.0000000000000D-01  1.6977295109428D+00  3.6249051930878D-01
    32  3.1000000000000D-01  1.7001079587603D+00  3.1092719933368D-01
    33  3.2000000000000D-01  1.6984135392913D+00  2.5913564706841D-01
    34  3.3000000000000D-01  1.6926941908653D+00  2.0747024784339D-01
    35  3.4000000000000D-01  1.6830102057151D+00  1.5623788269817D-01
    36  3.5000000000000D-01  1.6694340071314D+00  1.0569495289103D-01
    37  3.6000000000000D-01  1.6520498898012D+00  5.6045630745744D-02
    38  3.7000000000000D-01  1.6309537235579D+00  7.4413653108327D-03
    39  3.8000000000000D-01  1.6062526207392D+00 -4.0018353566750D-02
    40  3.9000000000000D-01  1.5780645673320D+00 -8.6283994267584D-02
    41  4.0000000000000D-01  1.5465180180823D+00 -1.3135279192925D-01
    42  4.1000000000000D-01  1.5117514557580D+00 -1.7526443707850D-01
    43  4.2000000000000D-01  1.4739129147944D+00 -2.1809573800554D-01
    44  4.3000000000000D-01  1.4331594696061D+00 -2.5995437196176D-01
    45  4.4000000000000D-01  1.3896566879405D+00 -3.0097185968507D-01
    46  4.5000000000000D-01  1.3435780497585D+00 -3.4129591477358D-01
    47  4.6000000000000D-01  1.2951043322764D+00 -3.8108233369184D-01
    48  4.7000000000000D-01  1.2444229619744D+00 -4.2048660340294D-01
    49  4.8000000000000D-01  1.1917273345822D+00 -4.5965541152653D-01
    50  4.9000000000000D-01  1.1372161042889D+00 -4.9871824833705D-01
    51  5.0000000000000D-01  1.0810924436816D+00 -5.3777929071090D-01
    52  5.1000000000000D-01  1.0235632762074D+00 -5.7690975523884D-01
    53  5.2000000000000D-01  9.6483848326111D-01 -6.1614090115755D-01
    54  5.3000000000000D-01  9.0513008832903D-01 -6.5545785357642D-01
    55  5.4000000000000D-01  8.4465142096108D-01 -6.9479440382934D-01
    56  5.5000000000000D-01  7.8361626369329D-01 -7.3402892690790D-01
    57  5.6000000000000D-01  7.2223798539765D-01 -7.7298153600702D-01
    58  5.7000000000000D-01  6.6072866488655D-01 -8.1141257171092D-01
    59  5.8000000000000D-01  5.9929820894140D-01 -8.4902249848695D-01
    60  5.9000000000000D-01  5.3815346926016D-01 -8.8545325452282D-01
    61  6.0000000000000D-01  4.7749736312248D-01 -9.2029107286131D-01
    62  6.1000000000000D-01  4.1752800284273D-01 -9.5307076294492D-01
    63  6.2000000000000D-01  3.5843783931947D-01 -9.8328141232378D-01
    64  6.3000000000000D-01  3.0041282518144D-01 -1.0103734393877D+00
    65  6.4000000000000D-01  2.4363160317544D-01 -1.0337668995309D+00
    66  6.5000000000000D-01  1.8826472552941D-01 -1.0528609202455D+00
    67  6.6000000000000D-01  1.3447391005281D-01 -1.0670441154650D+00
    68  6.7000000000000D-01  8.2411338700468D-02 -1.0757058065435D+00
    69  6.8000000000000D-01  3.2219004221189D-02 -1.0782478572289D+00
    70  6.9000000000000D-01 -1.5971889661166D-02 -1.0740969131504D+00
    71  7.0000000000000D-01 -6.2041469334979D-02 -1.0627168229890D+00
    72  7.1000000000000D-01 -1.0588166877623D-01 -1.0436210091601D+00
    73  7.2000000000000D-01 -1.4739663892414D-01 -1.0163845505804D+00
    74  7.3000000000000D-01 -1.8650308493002D-01 -9.8065573913558D-01
    75  7.4000000000000D-01 -2.2313052778168D-01 -9.3616687492702D-01
    76  7.5000000000000D-01 -2.5722148739739D-01 -8.8274407327582D-01
    77  7.6000000000000D-01 -2.8873158493121D-01 -8.2031586868790D-01
    78  7.7000000000000D-01 -3.1762956273081D-01 -7.4892041744324D-01
    79  7.8000000000000D-01 -3.4389722113078D-01 -6.6871112090822D-01
    80  7.9000000000000D-01 -3.6752927204058D-01 -5.7996051578654D-01
    81  8.0000000000000D-01 -3.8853311008814D-01 -4.8306230500604D-01
    82  8.1000000000000D-01 -4.0692850289330D-01 -3.7853143313370D-01
    83  8.2000000000000D-01 -4.2274720286801D-01 -2.6700214301946D-01
    84  8.3000000000000D-01 -4.3603248375031D-01 -1.4922398478704D-01
    85  8.4000000000000D-01 -4.4683860587308D-01 -2.6055784030871D-02
    86  8.5000000000000D-01 -4.5523021493194D-01  1.0154238759161D-01
    87  8.6000000000000D-01 -4.6128167973804D-01  2.3251915990129D-01
    88  8.7000000000000D-01 -4.6507637511063D-01  3.6574361481543D-01
    89  8.8000000000000D-01 -4.6670591666979D-01  5.0001869074902D-01
    90  8.9000000000000D-01 -4.6626935482221D-01  6.3409605925756D-01
    91  9.0000000000000D-01 -4.6387233568310D-01  7.6669226273145D-01
    92  9.1000000000000D-01 -4.5962623703766D-01  8.9650587546112D-01
    93  9.2000000000000D-01 -4.5364728770789D-01  1.0222354276180D+00
    94  9.3000000000000D-01 -4.4605567885114D-01  1.1425978131362D+00
    95  9.4000000000000D-01 -4.3697467577118D-01  1.2563468882923D+00
    96  9.5000000000000D-01 -4.2652973876598D-01  1.3622919587292D+00
    97  9.6000000000000D-01 -4.1484766137143D-01  1.4593158485588D+00
    98  9.7000000000000D-01 -4.0205573408486D-01  1.5463922464066D+00
    99  9.8000000000000D-01 -3.8828094127039D-01  1.6226020298024D+00
   100  9.9000000000000D-01 -3.7364919846332D-01  1.6871482811341D+00
   101  1.0000000000000D+00 -3.5828463670864D-01  1.7393697253698D+00
   102  1.0100000000000D+00 -3.4230893988474D-01  1.7787523421488D+00
   103  1.0200000000000D+00 -3.2584074024693D-01  1.8049389299491D+00
   104  1.0300000000000D+00 -3.0899507654976D-01  1.8177364327098D+00
   105  1.0400000000000D+00 -2.9188291826027D-01  1.8171208724004D+00
   106  1.0500000000000D+00 -2.7461075843273D-01  1.8032397690212D+00
   107  1.0600000000000D+00 -2.5728027683215D-01  1.7764119705311D+00
   108  1.0700000000000D+00 -2.3998807394065D-01  1.7371248559316D+00
   109  1.0800000000000D+00 -2.2282547548606D-01  1.6860289180791D+00
   110  1.0900000000000D+00 -2.0587840610772D-01  1.6239297784874D+00
   111  1.1000000000000D+00 -1.8922732987385D-01  1.5517777272070D+00
   112  1.1100000000000D+00 -1.7294725436995D-01  1.4706549267104D+00
   113  1.1200000000000D+00 -1.5710779434860D-01  1.3817604526690D+00
   114  1.1300000000000D+00 -1.4177328996045D-01  1.2863933904147D+00
   115  1.1400000000000D+00 -1.2700297396895D-01  1.1859342356789D+00
   116  1.1500000000000D+00 -1.1285118166040D-01  1.0818248818091D+00
   117  1.1600000000000D+00 -9.9367596717176D-02  9.7554749750741D-01
   118  1.1700000000000D+00 -8.6597525757711D-02  8.6860262742034D-01
   119  1.1800000000000D+00 -7.4582194011559D-02  7.6248686030164D-01
   120  1.1900000000000D+00 -6.3359054420686D-02  6.5867041923670D-01
   121  1.2000000000000D+00 -5.2962102314309D-02  5.5857503612601D-01
   122  1.2100000000000D+00 -4.3422187867313D-02  4.6355247135034D-01
   123  1.2200000000000D+00 -3.4767318816785D-02  3.7486402737773D-01
   124  1.2300000000000D+00 -2.7022946042269D-02  2.9366139950930D-01
   125  1.2400000000000D+00 -2.0212225068445D-02  2.2096918611916D-01
   126  1.2500000000000D+00 -1.4356247220248D-02  1.5766934855181D-01
   127  1.2600000000000D+00 -9.4756225265318D-03  1.0450358274087D-01
   128  1.2700000000000D+00 -5.5850718409674D-03  6.1999592086744D-02
   129  1.2800000000000D+00 -2.6842789263993D-03  3.0346529706327D-02
   130  1.2900000000000D+00 -8.5873229231321D-04  1.0622029859804D-02
   131  1.3000000000000D+00 -5.7535519090126D-05  2.0423891937855D-03
   132  1.3100000000000D+00  7.9334320902055D-05 -9.7140153884416D-05
   133  1.3200000000000D+00 -8.1731724009383D-06  3.1439285845318D-05
   134  1.3300000000000D+00 -1.5772515920316D-05  7.5737527045365D-05
   135  1.3400000000000D+00  3.9956429155657D-06 -1.2850208453659D-05
   136  1.3500000000000D+00  3.2780275612013D-07 -1.1972829367538D-06
   137  1.3600000000000D+00 -8.6174568281468D-08 -2.6215086425048D-06
   138  1.3700000000000D+00  0.0000000000000D+00  0.0000000000000D+00
   139  1.3800000000000D+00  0.0000000000000D+00  0.0000000000000D+00
   140  1.3900000000000D+00  0.0000000000000D+00  0.0000000000000D+00
   141  1.4000000000000D+00  0.0000000000000D+00  0.0000000000000D+00
   142  1.4100000000000D+00  0.0000000000000D+00  0.0000000000000D+00
   143  1.4200000000000D+00  0.0000000000000D+00  0.0000000000000D+00
   144  1.4300000000000D+00  0.0000000000000D+00  0.0000000000000D+00
   145  1.4400000000000D+00  0.0000000000000D+00  0.0000000000000D+00
   146  1.4500000000000D+00  0.0000000000000D+00  0.0000000000000D+00
   147  1.4600000000000D+00  0.0000000000000D+00  0.0000000000000D+00
   148  1.4700000000000D+00  0.0000000000000D+00  0.0000000000000D+00
   149  1.4800000000000D+00  0.0000000000000D+00  0.0000000000000D+00
   150  1.4900000000000D+00  0.0000000000000D+00  0.0000000000000D+00
   151  1.5000000000000D+00  0.0000000000000D+00  0.0000000000000D+00
   152  1.5100000000000D+00  0.0000000000000D+00  0.0000000000000D+00
   153  1.5200000000000D+00  0.0000000000000D+00  0.0000000000000D+00
   154  1.5300000000000D+00  0.0000000000000D+00  0.0000000000000D+00
   155  1.5400000000000D+00  0.0000000000000D+00  0.0000000000000D+00
   156  1.5500000000000D+00  0.0000000000000D+00  0.0000000000000D+00
   157  1.5600000000000D+00  0.0000000000000D+00  0.0000000000000D+00
   158  1.5700000000000D+00  0.0000000000000D+00  0.0000000000000D+00
   159  1.5800000000000D+00  0.0000000000000D+00  0.0000000000000D+00
   160  1.5900000000000D+00  0.0000000000000D+00  0.0000000000000D+00
   161  1.6000000000000D+00  0.0000000000000D+00  0.0000000000000D+00
   162  1.6100000000000D+00  0.0000000000000D+00  0.0000000000000D+00
   163  1.6200000000000D+00  0.0000000000000D+00  0.0000000000000D+00
   164  1.6300000000000D+00  0.0000000000000D+00  0.0000000000000D+00
   165  1.6400000000000D+00  0.0000000000000D+00  0.0000000000000D+00
   166  1.6500000000000D+00  0.0000000000000D+00  0.0000000000000D+00
   167  1.6600000000000D+00  0.0000000000000D+00  0.0000000000000D+00
   168  1.6700000000000D+00  0.0000000000000D+00  0.0000000000000D+00
   169  1.6800000000000D+00  0.0000000000000D+00  0.0000000000000D+00
   170  1.6900000000000D+00  0.0000000000000D+00  0.0000000000000D+00
   171  1.7000000000000D+00  0.0000000000000D+00  0.0000000000000D+00
   172  1.7100000000000D+00  0.0000000000000D+00  0.0000000000000D+00
   173  1.7200000000000D+00  0.0000000000000D+00  0.0000000000000D+00
   174  1.7300000000000D+00  0.0000000000000D+00  0.0000000000000D+00
   175  1.7400000000000D+00  0.0000000000000D+00  0.0000000000000D+00
   176  1.7500000000000D+00  0.0000000000000D+00  0.0000000000000D+00
   177  1.7600000000000D+00  0.0000000000000D+00  0.0000000000000D+00
   178  1.7700000000000D+00  0.0000000000000D+00  0.0000000000000D+00
   179  1.7800000000000D+00  0.0000000000000D+00  0.0000000000000D+00
   180  1.7900000000000D+00  0.0000000000000D+00  0.0000000000000D+00
   181  1.8000000000000D+00  0.0000000000000D+00  0.0000000000000D+00
   182  1.8100000000000D+00  0.0000000000000D+00  0.0000000000000D+00
   183  1.8200000000000D+00  0.0000000000000D+00  0.0000000000000D+00
   184  1.8300000000000D+00  0.0000000000000D+00  0.0000000000000D+00
   185  1.8400000000000D+00  0.0000000000000D+00  0.0000000000000D+00
   186  1.8500000000000D+00  0.0000000000000D+00  0.0000000000000D+00
   187  1.8600000000000D+00  0.0000000000000D+00  0.0000000000000D+00
   188  1.8700000000000D+00  0.0000000000000D+00  0.0000000000000D+00
   189  1.8800000000000D+00  0.0000000000000D+00  0.0000000000000D+00
   190  1.8900000000000D+00  0.0000000000000D+00  0.0000000000000D+00
   191  1.9000000000000D+00  0.0000000000000D+00  0.0000000000000D+00
   192  1.9100000000000D+00  0.0000000000000D+00  0.0000000000000D+00
   193  1.9200000000000D+00  0.0000000000000D+00  0.0000000000000D+00
   194  1.9300000000000D+00  0.0000000000000D+00  0.0000000000000D+00
   195  1.9400000000000D+00  0.0000000000000D+00  0.0000000000000D+00
   196  1.9500000000000D+00  0.0000000000000D+00  0.0000000000000D+00
   197  1.9600000000000D+00  0.0000000000000D+00  0.0000000000000D+00
   198  1.9700000000000D+00  0.0000000000000D+00  0.0000000000000D+00
   199  1.9800000000000D+00  0.0000000000000D+00  0.0000000000000D+00
   200  1.9900000000000D+00  0.0000000000000D+00  0.0000000000000D+00
   201  2.0000000000000D+00  0.0000000000000D+00  0.0000000000000D+00
   202  2.0100000000000D+00  0.0000000000000D+00  0.0000000000000D+00
   203  2.0200000000000D+00  0.0000000000000D+00  0.0000000000000D+00
   204  2.0300000000000D+00  0.0000000000000D+00  0.0000000000000D+00
   205  2.0400000000000D+00  0.0000000000000D+00  0.0000000000000D+00
   206  2.0500000000000D+00  0.0000000000000D+00  0.0000000000000D+00
   207  2.0600000000000D+00  0.0000000000000D+00  0.0000000000000D+00
   208  2.0700000000000D+00  0.0000000000000D+00  0.0000000000000D+00
   209  2.0800000000000D+00  0.0000000000000D+00  0.0000000000000D+00
   210  2.0900000000000D+00  0.0000000000000D+00  0.0000000000000D+00
   211  2.1000000000000D+00  0.0000000000000D+00  0.0000000000000D+00
   212  2.1100000000000D+00  0.0000000000000D+00  0.0000000000000D+00
   213  2.1200000000000D+00  0.0000000000000D+00  0.0000000000000D+00
   214  2.1300000000000D+00  0.0000000000000D+00  0.0000000000000D+00
   215  2.1400000000000D+00  0.0000000000000D+00  0.0000000000000D+00
   216  2.1500000000000D+00  0.0000000000000D+00  0.0000000000000D+00
   217  2.1600000000000D+00  0.0000000000000D+00  0.0000000000000D+00
   218  2.1700000000000D+00  0.0000000000000D+00  0.0000000000000D+00
   219  2.1800000000000D+00  0.0000000000000D+00  0.0000000000000D+00
   220  2.1900000000000D+00  0.0000000000000D+00  0.0000000000000D+00
   221  2.2000000000000D+00  0.0000000000000D+00  0.0000000000000D+00
   222  2.2100000000000D+00  0.0000000000000D+00  0.0000000000000D+00
   223  2.2200000000000D+00  0.0000000000000D+00  0.0000000000000D+00
   224  2.2300000000000D+00  0.0000000000000D+00  0.0000000000000D+00
   225  2.2400000000000D+00  0.0000000000000D+00  0.0000000000000D+00
   226  2.2500000000000D+00  0.0000000000000D+00  0.0000000000000D+00
   227  2.2600000000000D+00  0.0000000000000D+00  0.0000000000000D+00
   228  2.2700000000000D+00  0.0000000000000D+00  0.0000000000000D+00
   229  2.2800000000000D+00  0.0000000000000D+00  0.0000000000000D+00
   230  2.2900000000000D+00  0.0000000000000D+00  0.0000000000000D+00
   231  2.3000000000000D+00  0.0000000000000D+00  0.0000000000000D+00
   232  2.3100000000000D+00  0.0000000000000D+00  0.0000000000000D+00
   233  2.3200000000000D+00  0.0000000000000D+00  0.0000000000000D+00
   234  2.3300000000000D+00  0.0000000000000D+00  0.0000000000000D+00
   235  2.3400000000000D+00  0.0000000000000D+00  0.0000000000000D+00
   236  2.3500000000000D+00  0.0000000000000D+00  0.0000000000000D+00
   237  2.3600000000000D+00  0.0000000000000D+00  0.0000000000000D+00
   238  2.3700000000000D+00  0.0000000000000D+00  0.0000000000000D+00
   239  2.3800000000000D+00  0.0000000000000D+00  0.0000000000000D+00
   240  2.3900000000000D+00  0.0000000000000D+00  0.0000000000000D+00
   241  2.4000000000000D+00  0.0000000000000D+00  0.0000000000000D+00
   242  2.4100000000000D+00  0.0000000000000D+00  0.0000000000000D+00
   243  2.4200000000000D+00  0.0000000000000D+00  0.0000000000000D+00
   244  2.4300000000000D+00  0.0000000000000D+00  0.0000000000000D+00
   245  2.4400000000000D+00  0.0000000000000D+00  0.0000000000000D+00
   246  2.4500000000000D+00  0.0000000000000D+00  0.0000000000000D+00
   247  2.4600000000000D+00  0.0000000000000D+00  0.0000000000000D+00
   248  2.4700000000000D+00  0.0000000000000D+00  0.0000000000000D+00
   249  2.4800000000000D+00  0.0000000000000D+00  0.0000000000000D+00
   250  2.4900000000000D+00  0.0000000000000D+00  0.0000000000000D+00
   251  2.5000000000000D+00  0.0000000000000D+00  0.0000000000000D+00
   252  2.5100000000000D+00  0.0000000000000D+00  0.0000000000000D+00
   253  2.5200000000000D+00  0.0000000000000D+00  0.0000000000000D+00
   254  2.5300000000000D+00  0.0000000000000D+00  0.0000000000000D+00
   255  2.5400000000000D+00  0.0000000000000D+00  0.0000000000000D+00
   256  2.5500000000000D+00  0.0000000000000D+00  0.0000000000000D+00
   257  2.5600000000000D+00  0.0000000000000D+00  0.0000000000000D+00
   258  2.5700000000000D+00  0.0000000000000D+00  0.0000000000000D+00
   259  2.5800000000000D+00  0.0000000000000D+00  0.0000000000000D+00
   260  2.5900000000000D+00  0.0000000000000D+00  0.0000000000000D+00
   261  2.6000000000000D+00  0.0000000000000D+00  0.0000000000000D+00
   262  2.6100000000000D+00  0.0000000000000D+00  0.0000000000000D+00
   263  2.6200000000000D+00  0.0000000000000D+00  0.0000000000000D+00
   264  2.6300000000000D+00  0.0000000000000D+00  0.0000000000000D+00
   265  2.6400000000000D+00  0.0000000000000D+00  0.0000000000000D+00
   266  2.6500000000000D+00  0.0000000000000D+00  0.0000000000000D+00
   267  2.6600000000000D+00  0.0000000000000D+00  0.0000000000000D+00
   268  2.6700000000000D+00  0.0000000000000D+00  0.0000000000000D+00
   269  2.6800000000000D+00  0.0000000000000D+00  0.0000000000000D+00
   270  2.6900000000000D+00  0.0000000000000D+00  0.0000000000000D+00
   271  2.7000000000000D+00  0.0000000000000D+00  0.0000000000000D+00
   272  2.7100000000000D+00  0.0000000000000D+00  0.0000000000000D+00
   273  2.7200000000000D+00  0.0000000000000D+00  0.0000000000000D+00
   274  2.7300000000000D+00  0.0000000000000D+00  0.0000000000000D+00
   275  2.7400000000000D+00  0.0000000000000D+00  0.0000000000000D+00
   276  2.7500000000000D+00  0.0000000000000D+00  0.0000000000000D+00
   277  2.7600000000000D+00  0.0000000000000D+00  0.0000000000000D+00
   278  2.7700000000000D+00  0.0000000000000D+00  0.0000000000000D+00
   279  2.7800000000000D+00  0.0000000000000D+00  0.0000000000000D+00
   280  2.7900000000000D+00  0.0000000000000D+00  0.0000000000000D+00
   281  2.8000000000000D+00  0.0000000000000D+00  0.0000000000000D+00
   282  2.8100000000000D+00  0.0000000000000D+00  0.0000000000000D+00
   283  2.8200000000000D+00  0.0000000000000D+00  0.0000000000000D+00
   284  2.8300000000000D+00  0.0000000000000D+00  0.0000000000000D+00
   285  2.8400000000000D+00  0.0000000000000D+00  0.0000000000000D+00
   286  2.8500000000000D+00  0.0000000000000D+00  0.0000000000000D+00
   287  2.8600000000000D+00  0.0000000000000D+00  0.0000000000000D+00
   288  2.8700000000000D+00  0.0000000000000D+00  0.0000000000000D+00
   289  2.8800000000000D+00  0.0000000000000D+00  0.0000000000000D+00
   290  2.8900000000000D+00  0.0000000000000D+00  0.0000000000000D+00
   291  2.9000000000000D+00  0.0000000000000D+00  0.0000000000000D+00
   292  2.9100000000000D+00  0.0000000000000D+00  0.0000000000000D+00
   293  2.9200000000000D+00  0.0000000000000D+00  0.0000000000000D+00
   294  2.9300000000000D+00  0.0000000000000D+00  0.0000000000000D+00
   295  2.9400000000000D+00  0.0000000000000D+00  0.0000000000000D+00
   296  2.9500000000000D+00  0.0000000000000D+00  0.0000000000000D+00
   297  2.9600000000000D+00  0.0000000000000D+00  0.0000000000000D+00
   298  2.9700000000000D+00  0.0000000000000D+00  0.0000000000000D+00
   299  2.9800000000000D+00  0.0000000000000D+00  0.0000000000000D+00
   300  2.9900000000000D+00  0.0000000000000D+00  0.0000000000000D+00
   301  3.0000000000000D+00  0.0000000000000D+00  0.0000000000000D+00
   302  3.0100000000000D+00  0.0000000000000D+00  0.0000000000000D+00
   303  3.0200000000000D+00  0.0000000000000D+00  0.0000000000000D+00
   304  3.0300000000000D+00  0.0000000000000D+00  0.0000000000000D+00
   305  3.0400000000000D+00  0.0000000000000D+00  0.0000000000000D+00
   306  3.0500000000000D+00  0.0000000000000D+00  0.0000000000000D+00
   307  3.0600000000000D+00  0.0000000000000D+00  0.0000000000000D+00
   308  3.0700000000000D+00  0.0000000000000D+00  0.0000000000000D+00
   309  3.0800000000000D+00  0.0000000000000D+00  0.0000000000000D+00
   310  3.0900000000000D+00  0.0000000000000D+00  0.0000000000000D+00
   311  3.1000000000000D+00  0.0000000000000D+00  0.0000000000000D+00
   312  3.1100000000000D+00  0.0000000000000D+00  0.0000000000000D+00
   313  3.1200000000000D+00  0.0000000000000D+00  0.0000000000000D+00
   314  3.1300000000000D+00  0.0000000000000D+00  0.0000000000000D+00
   315  3.1400000000000D+00  0.0000000000000D+00  0.0000000000000D+00
   316  3.1500000000000D+00  0.0000000000000D+00  0.0000000000000D+00
   317  3.1600000000000D+00  0.0000000000000D+00  0.0000000000000D+00
   318  3.1700000000000D+00  0.0000000000000D+00  0.0000000000000D+00
   319  3.1800000000000D+00  0.0000000000000D+00  0.0000000000000D+00
   320  3.1900000000000D+00  0.0000000000000D+00  0.0000000000000D+00
   321  3.2000000000000D+00  0.0000000000000D+00  0.0000000000000D+00
   322  3.2100000000000D+00  0.0000000000000D+00  0.0000000000000D+00
   323  3.2200000000000D+00  0.0000000000000D+00  0.0000000000000D+00
   324  3.2300000000000D+00  0.0000000000000D+00  0.0000000000000D+00
   325  3.2400000000000D+00  0.0000000000000D+00  0.0000000000000D+00
   326  3.2500000000000D+00  0.0000000000000D+00  0.0000000000000D+00
   327  3.2600000000000D+00  0.0000000000000D+00  0.0000000000000D+00
   328  3.2700000000000D+00  0.0000000000000D+00  0.0000000000000D+00
   329  3.2800000000000D+00  0.0000000000000D+00  0.0000000000000D+00
   330  3.2900000000000D+00  0.0000000000000D+00  0.0000000000000D+00
   331  3.3000000000000D+00  0.0000000000000D+00  0.0000000000000D+00
   332  3.3100000000000D+00  0.0000000000000D+00  0.0000000000000D+00
   333  3.3200000000000D+00  0.0000000000000D+00  0.0000000000000D+00
   334  3.3300000000000D+00  0.0000000000000D+00  0.0000000000000D+00
   335  3.3400000000000D+00  0.0000000000000D+00  0.0000000000000D+00
   336  3.3500000000000D+00  0.0000000000000D+00  0.0000000000000D+00
   337  3.3600000000000D+00  0.0000000000000D+00  0.0000000000000D+00
   338  3.3700000000000D+00  0.0000000000000D+00  0.0000000000000D+00
   339  3.3800000000000D+00  0.0000000000000D+00  0.0000000000000D+00
   340  3.3900000000000D+00  0.0000000000000D+00  0.0000000000000D+00
   341  3.4000000000000D+00  0.0000000000000D+00  0.0000000000000D+00
   342  3.4100000000000D+00  0.0000000000000D+00  0.0000000000000D+00
   343  3.4200000000000D+00  0.0000000000000D+00  0.0000000000000D+00
   344  3.4300000000000D+00  0.0000000000000D+00  0.0000000000000D+00
   345  3.4400000000000D+00  0.0000000000000D+00  0.0000000000000D+00
   346  3.4500000000000D+00  0.0000000000000D+00  0.0000000000000D+00
   347  3.4600000000000D+00  0.0000000000000D+00  0.0000000000000D+00
   348  3.4700000000000D+00  0.0000000000000D+00  0.0000000000000D+00
   349  3.4800000000000D+00  0.0000000000000D+00  0.0000000000000D+00
   350  3.4900000000000D+00  0.0000000000000D+00  0.0000000000000D+00
   351  3.5000000000000D+00  0.0000000000000D+00  0.0000000000000D+00
   352  3.5100000000000D+00  0.0000000000000D+00  0.0000000000000D+00
   353  3.5200000000000D+00  0.0000000000000D+00  0.0000000000000D+00
   354  3.5300000000000D+00  0.0000000000000D+00  0.0000000000000D+00
   355  3.5400000000000D+00  0.0000000000000D+00  0.0000000000000D+00
   356  3.5500000000000D+00  0.0000000000000D+00  0.0000000000000D+00
   357  3.5600000000000D+00  0.0000000000000D+00  0.0000000000000D+00
   358  3.5700000000000D+00  0.0000000000000D+00  0.0000000000000D+00
   359  3.5800000000000D+00  0.0000000000000D+00  0.0000000000000D+00
   360  3.5900000000000D+00  0.0000000000000D+00  0.0000000000000D+00
   361  3.6000000000000D+00  0.0000000000000D+00  0.0000000000000D+00
   362  3.6100000000000D+00  0.0000000000000D+00  0.0000000000000D+00
   363  3.6200000000000D+00  0.0000000000000D+00  0.0000000000000D+00
   364  3.6300000000000D+00  0.0000000000000D+00  0.0000000000000D+00
   365  3.6400000000000D+00  0.0000000000000D+00  0.0000000000000D+00
   366  3.6500000000000D+00  0.0000000000000D+00  0.0000000000000D+00
   367  3.6600000000000D+00  0.0000000000000D+00  0.0000000000000D+00
   368  3.6700000000000D+00  0.0000000000000D+00  0.0000000000000D+00
   369  3.6800000000000D+00  0.0000000000000D+00  0.0000000000000D+00
   370  3.6900000000000D+00  0.0000000000000D+00  0.0000000000000D+00
   371  3.7000000000000D+00  0.0000000000000D+00  0.0000000000000D+00
   372  3.7100000000000D+00  0.0000000000000D+00  0.0000000000000D+00
   373  3.7200000000000D+00  0.0000000000000D+00  0.0000000000000D+00
   374  3.7300000000000D+00  0.0000000000000D+00  0.0000000000000D+00
   375  3.7400000000000D+00  0.0000000000000D+00  0.0000000000000D+00
   376  3.7500000000000D+00  0.0000000000000D+00  0.0000000000000D+00
   377  3.7600000000000D+00  0.0000000000000D+00  0.0000000000000D+00
   378  3.7700000000000D+00  0.0000000000000D+00  0.0000000000000D+00
   379  3.7800000000000D+00  0.0000000000000D+00  0.0000000000000D+00
   380  3.7900000000000D+00  0.0000000000000D+00  0.0000000000000D+00
   381  3.8000000000000D+00  0.0000000000000D+00  0.0000000000000D+00
   382  3.8100000000000D+00  0.0000000000000D+00  0.0000000000000D+00
   383  3.8200000000000D+00  0.0000000000000D+00  0.0000000000000D+00
   384  3.8300000000000D+00  0.0000000000000D+00  0.0000000000000D+00
   385  3.8400000000000D+00  0.0000000000000D+00  0.0000000000000D+00
   386  3.8500000000000D+00  0.0000000000000D+00  0.0000000000000D+00
   387  3.8600000000000D+00  0.0000000000000D+00  0.0000000000000D+00
   388  3.8700000000000D+00  0.0000000000000D+00  0.0000000000000D+00
   389  3.8800000000000D+00  0.0000000000000D+00  0.0000000000000D+00
   390  3.8900000000000D+00  0.0000000000000D+00  0.0000000000000D+00
   391  3.9000000000000D+00  0.0000000000000D+00  0.0000000000000D+00
   392  3.9100000000000D+00  0.0000000000000D+00  0.0000000000000D+00
   393  3.9200000000000D+00  0.0000000000000D+00  0.0000000000000D+00
   394  3.9300000000000D+00  0.0000000000000D+00  0.0000000000000D+00
   395  3.9400000000000D+00  0.0000000000000D+00  0.0000000000000D+00
   396  3.9500000000000D+00  0.0000000000000D+00  0.0000000000000D+00
   397  3.9600000000000D+00  0.0000000000000D+00  0.0000000000000D+00
   398  3.9700000000000D+00  0.0000000000000D+00  0.0000000000000D+00
   399  3.9800000000000D+00  0.0000000000000D+00  0.0000000000000D+00
   400  3.9900000000000D+00  0.0000000000000D+00  0.0000000000000D+00
   401  4.0000000000000D+00  0.0000000000000D+00  0.0000000000000D+00
   402  4.0100000000000D+00  0.0000000000000D+00  0.0000000000000D+00
   403  4.0200000000000D+00  0.0000000000000D+00  0.0000000000000D+00
   404  4.0300000000000D+00  0.0000000000000D+00  0.0000000000000D+00
   405  4.0400000000000D+00  0.0000000000000D+00  0.0000000000000D+00
   406  4.0500000000000D+00  0.0000000000000D+00  0.0000000000000D+00
   407  4.0600000000000D+00  0.0000000000000D+00  0.0000000000000D+00
   408  4.0700000000000D+00  0.0000000000000D+00  0.0000000000000D+00
   409  4.0800000000000D+00  0.0000000000000D+00  0.0000000000000D+00
   410  4.0900000000000D+00  0.0000000000000D+00  0.0000000000000D+00
   411  4.1000000000000D+00  0.0000000000000D+00  0.0000000000000D+00
   412  4.1100000000000D+00  0.0000000000000D+00  0.0000000000000D+00
   413  4.1200000000000D+00  0.0000000000000D+00  0.0000000000000D+00
   414  4.1300000000000D+00  0.0000000000000D+00  0.0000000000000D+00
   415  4.1400000000000D+00  0.0000000000000D+00  0.0000000000000D+00
   416  4.1500000000000D+00  0.0000000000000D+00  0.0000000000000D+00
   417  4.1600000000000D+00  0.0000000000000D+00  0.0000000000000D+00
   418  4.1700000000000D+00  0.0000000000000D+00  0.0000000000000D+00
   419  4.1800000000000D+00  0.0000000000000D+00  0.0000000000000D+00
   420  4.1900000000000D+00  0.0000000000000D+00  0.0000000000000D+00
   421  4.2000000000000D+00  0.0000000000000D+00  0.0000000000000D+00
   422  4.2100000000000D+00  0.0000000000000D+00  0.0000000000000D+00