Sb    ONCVPSP-3.3.0  r_core=   2.51105   2.15035   2.60253
     51.0000      5.0000      220117    zatom,zion,pspd
     8      11   2     4   600     0    pspcod,pspxc,lmax,lloc,mmax,r2well
  5.99000000  0.00000000  0.00000000    rchrg fchrg qchrg
     2     2     2     0     0    nproj
     1     1           extension_switch
   0                         4.8475411424678D+00  5.6075084882790D-01
     1  0.0000000000000D+00 -7.4316941489627D-12  6.2785332488602D-12
     2  1.0000000000000D-02  2.2735127216169D-02 -7.4338597445873D-03
     3  2.0000000000000D-02  4.5460086520366D-02 -1.4860128431708D-02
     4  3.0000000000000D-02  6.8164741102959D-02 -2.2271241391847D-02
     5  4.0000000000000D-02  9.0839016096457D-02 -2.9659686495481D-02
     6  5.0000000000000D-02  1.1347292889211D-01 -3.7018029834835D-02
     7  6.0000000000000D-02  1.3605661867638D-01 -4.4338940704214D-02
     8  7.0000000000000D-02  1.5858037493607D-01 -5.1615215652359D-02
     9  8.0000000000000D-02  1.8103466468807D-01 -5.8839801386632D-02
    10  9.0000000000000D-02  2.0341015819912D-01 -6.6005816316422D-02
    11  1.0000000000000D-01  2.2569775297170D-01 -7.3106570532478D-02
    12  1.1000000000000D-01  2.4788859578480D-01 -8.0135584029311D-02
    13  1.2000000000000D-01  2.6997410259206D-01 -8.7086602989811D-02
    14  1.3000000000000D-01  2.9194597609590D-01 -9.3953613964372D-02
    15  1.4000000000000D-01  3.1379622083242D-01 -1.0073085579118D-01
    16  1.5000000000000D-01  3.3551715562058D-01 -1.0741282911987D-01
    17  1.6000000000000D-01  3.5710142324810D-01 -1.1399430341724D-01
    18  1.7000000000000D-01  3.7854199728684D-01 -1.2047032135118D-01
    19  1.8000000000000D-01  3.9983218595177D-01 -1.2683620046741D-01
    20  1.9000000000000D-01  4.2096563293917D-01 -1.3308753209241D-01
    21  2.0000000000000D-01  4.4193631520254D-01 -1.3922017741589D-01
    22  2.1000000000000D-01  4.6273853764729D-01 -1.4523026072609D-01
    23  2.2000000000000D-01  4.8336692474891D-01 -1.5111415979202D-01
    24  2.3000000000000D-01  5.0381640912207D-01 -1.5686849340737D-01
    25  2.4000000000000D-01  5.2408221709214D-01 -1.6249010613208D-01
    26  2.5000000000000D-01  5.4415985134324D-01 -1.6797605028848D-01
    27  2.6000000000000D-01  5.6404507074008D-01 -1.7332356528984D-01
    28  2.7000000000000D-01  5.8373386744307D-01 -1.7853005440022D-01
    29  2.8000000000000D-01  6.0322244145812D-01 -1.8359305904452D-01
    30  2.9000000000000D-01  6.2250717278324D-01 -1.8851023080797D-01
    31  3.0000000000000D-01  6.4158459133434D-01 -1.9327930128340D-01
    32  3.1000000000000D-01  6.6045134485156D-01 -1.9789804994362D-01
    33  3.2000000000000D-01  6.7910416500522D-01 -2.0236427023371D-01
    34  3.3000000000000D-01  6.9753983193704D-01 -2.0667573409543D-01
    35  3.4000000000000D-01  7.1575513748724D-01 -2.1083015515144D-01
    36  3.5000000000000D-01  7.3374684737193D-01 -2.1482515079195D-01
    37  3.6000000000000D-01  7.5151166258672D-01 -2.1865820342005D-01
    38  3.7000000000000D-01  7.6904618032291D-01 -2.2232662112397D-01
    39  3.8000000000000D-01  7.8634685469097D-01 -2.2582749805516D-01
    40  3.9000000000000D-01  8.0340995755229D-01 -2.2915767480078D-01
    41  4.0000000000000D-01  8.2023153976512D-01 -2.3231369904623D-01
    42  4.1000000000000D-01  8.3680739315272D-01 -2.3529178682995D-01
    43  4.2000000000000D-01  8.5313301350283D-01 -2.3808778469659D-01
    44  4.3000000000000D-01  8.6920356490563D-01 -2.4069713305758D-01
    45  4.4000000000000D-01  8.8501384573434D-01 -2.4311483106857D-01
    46  4.5000000000000D-01  9.0055825656660D-01 -2.4533540333239D-01
    47  4.6000000000000D-01  9.1583077033779D-01 -2.4735286873338D-01
    48  4.7000000000000D-01  9.3082490500741D-01 -2.4916071170383D-01
    49  4.8000000000000D-01  9.4553369900866D-01 -2.5075185621710D-01
    50  4.9000000000000D-01  9.5994968973757D-01 -2.5211864279332D-01
    51  5.0000000000000D-01  9.7406489532346D-01 -2.5325280879326D-01
    52  5.1000000000000D-01  9.8787079990500D-01 -2.5414547226421D-01
    53  5.2000000000000D-01  1.0013583426182D+00 -2.5478711958749D-01
    54  5.3000000000000D-01  1.0145179104820D+00 -2.5516759716178D-01
    55  5.4000000000000D-01  1.0273393353468D+00 -2.5527610733969D-01
    56  5.5000000000000D-01  1.0398118950462D+00 -2.5510120881534D-01
    57  5.6000000000000D-01  1.0519243188716D+00 -2.5463082164142D-01
    58  5.7000000000000D-01  1.0636647974603D+00 -2.5385223703159D-01
    59  5.8000000000000D-01  1.0750209971662D+00 -2.5275213208167D-01
    60  5.9000000000000D-01  1.0859800789513D+00 -2.5131658951849D-01
    61  6.0000000000000D-01  1.0965287218120D+00 -2.4953112255975D-01
    62  6.1000000000000D-01  1.1066531507255D+00 -2.4738070494228D-01
    63  6.2000000000000D-01  1.1163391690735D+00 -2.4484980614817D-01
    64  6.3000000000000D-01  1.1255721954721D+00 -2.4192243183088D-01
    65  6.4000000000000D-01  1.1343373049108D+00 -2.3858216941433D-01
    66  6.5000000000000D-01  1.1426192740723D+00 -2.3481223880891D-01
    67  6.6000000000000D-01  1.1504026306822D+00 -2.3059554815933D-01
    68  6.7000000000000D-01  1.1576717067063D+00 -2.2591475450895D-01
    69  6.8000000000000D-01  1.1644106951907D+00 -2.2075232923633D-01
    70  6.9000000000000D-01  1.1706037105140D+00 -2.1509062808970D-01
    71  7.0000000000000D-01  1.1762348517960D+00 -2.0891196561620D-01
    72  7.1000000000000D-01  1.1812882691857D+00 -2.0219869375381D-01
    73  7.2000000000000D-01  1.1857482327309D+00 -1.9493328432585D-01
    74  7.3000000000000D-01  1.1895992035091D+00 -1.8709841515063D-01
    75  7.4000000000000D-01  1.1928259066845D+00 -1.7867705945214D-01
    76  7.5000000000000D-01  1.1954134061379D+00 -1.6965257823265D-01
    77  7.6000000000000D-01  1.1973471803019D+00 -1.6000881524343D-01
    78  7.7000000000000D-01  1.1986131988210D+00 -1.4973019416772D-01
    79  7.8000000000000D-01  1.1991979996479D+00 -1.3880181760778D-01
    80  7.9000000000000D-01  1.1990887661753D+00 -1.2720956744937D-01
    81  8.0000000000000D-01  1.1982734040002D+00 -1.1494020615801D-01
    82  8.1000000000000D-01  1.1967406169114D+00 -1.0198147854603D-01
    83  8.2000000000000D-01  1.1944799816902D+00 -8.8322213535213D-02
    84  8.3000000000000D-01  1.1914820213156D+00 -7.3952425427783D-02
    85  8.4000000000000D-01  1.1877382761671D+00 -5.8863414188873D-02
    86  8.5000000000000D-01  1.1832413728259D+00 -4.3047864236089D-02
    87  8.6000000000000D-01  1.1779850900797D+00 -2.6499941226732D-02
    88  8.7000000000000D-01  1.1719644217500D+00 -9.2153863303243D-03
    89  8.8000000000000D-01  1.1651756359709D+00  8.8083925258129D-03
    90  8.9000000000000D-01  1.1576163305627D+00  2.7572232948242D-02
    91  9.0000000000000D-01  1.1492854841627D+00  4.7075134411831D-02
    92  9.1000000000000D-01  1.1401835027894D+00  6.7314179134780D-02
    93  9.2000000000000D-01  1.1303122615433D+00  8.8284457982679D-02
    94  9.3000000000000D-01  1.1196751411634D+00  1.0997900187724D-01
    95  9.4000000000000D-01  1.1082770591866D+00  1.3238871917053D-01
    96  9.5000000000000D-01  1.0961244954827D+00  1.5550233942819D-01
    97  9.6000000000000D-01  1.0832255119612D+00  1.7930636404518D-01
    98  9.7000000000000D-01  1.0695897662791D+00  2.0378502409531D-01
    99  9.8000000000000D-01  1.0552285194050D+00  2.2892024579145D-01
   100  9.9000000000000D-01  1.0401546369263D+00  2.5469162390645D-01
   101  1.0000000000000D+00  1.0243825840176D+00  2.8107640347599D-01
   102  1.0100000000000D+00  1.0079284140198D+00  3.0804947007327D-01
   103  1.0200000000000D+00  9.9080975061171D-01  3.3558334891416D-01
   104  1.0300000000000D+00  9.7304576358794D-01  3.6364821301477D-01
   105  1.0400000000000D+00  9.5465713829073D-01  3.9221190058900D-01
   106  1.0500000000000D+00  9.3566603877372D-01  4.2123994183541D-01
   107  1.0600000000000D+00  9.1609606480961D-01  4.5069559522324D-01
   108  1.0700000000000D+00  8.9597220288383D-01  4.8053989334866D-01
   109  1.0800000000000D+00  8.7532077134727D-01  5.1073169839124D-01
   110  1.0900000000000D+00  8.5416935993253D-01  5.4122776715700D-01
   111  1.1000000000000D+00  8.3254676386527D-01  5.7198282565481D-01
   112  1.1100000000000D+00  8.1048291283257D-01  6.0294965310591D-01
   113  1.1200000000000D+00  7.8800879509216D-01  6.3407917525084D-01
   114  1.1300000000000D+00  7.6515637703647D-01  6.6532056676694D-01
   115  1.1400000000000D+00  7.4195851854563D-01  6.9662136257187D-01
   116  1.1500000000000D+00  7.1844888448697D-01  7.2792757774173D-01
   117  1.1600000000000D+00  6.9466185273445D-01  7.5918383573956D-01
   118  1.1700000000000D+00  6.7063241910408D-01  7.9033350459893D-01
   119  1.1800000000000D+00  6.4639609961361D-01  8.2131884067265D-01
   120  1.1900000000000D+00  6.2198883048964D-01  8.5208113951372D-01
   121  1.2000000000000D+00  5.9744686635325D-01  8.8256089343100D-01
   122  1.2100000000000D+00  5.7280667702919D-01  9.1269795520779D-01
   123  1.2200000000000D+00  5.4810484342554D-01  9.4243170744758D-01
   124  1.2300000000000D+00  5.2337795293555D-01  9.7170123698479D-01
   125  1.2400000000000D+00  4.9866249481717D-01  1.0004455137581D+00
   126  1.2500000000000D+00  4.7399475600142D-01  1.0286035735178D+00
   127  1.2600000000000D+00  4.4941071777901D-01  1.0561147037206D+00
   128  1.2700000000000D+00  4.2494595381155D-01  1.0829186319394D+00
   129  1.2800000000000D+00  4.0063552989880D-01  1.1089557160879D+00
   130  1.2900000000000D+00  3.7651390592832D-01  1.1341671357560D+00
   131  1.3000000000000D+00  3.5261484042503D-01  1.1584950839301D+00
   132  1.3100000000000D+00  3.2897129808859D-01  1.1818829583594D+00
   133  1.3200000000000D+00  3.0561536070651D-01  1.2042755518293D+00
   134  1.3300000000000D+00  2.8257814180893D-01  1.2256192405889D+00
   135  1.3400000000000D+00  2.5988970538929D-01  1.2458621701863D+00
   136  1.3500000000000D+00  2.3757898903201D-01  1.2649544379614D+00
   137  1.3600000000000D+00  2.1567373173263D-01  1.2828482714474D+00
   138  1.3700000000000D+00  1.9420040666339D-01  1.2994982019624D+00
   139  1.3800000000000D+00  1.7318415916936D-01  1.3148612326393D+00
   140  1.3900000000000D+00  1.5264875016481D-01  1.3288970002115D+00
   141  1.4000000000000D+00  1.3261650514210D-01  1.3415679298515D+00
   142  1.4100000000000D+00  1.1310826896265D-01  1.3528393823739D+00
   143  1.4200000000000D+00  9.4143366506871D-02  1.3626797932068D+00
   144  1.4300000000000D+00  7.5739569356937D-02  1.3710608024379D+00
   145  1.4400000000000D+00  5.7913068506331D-02  1.3779573754146D+00
   146  1.4500000000000D+00  4.0678453173375D-02  1.3833479133067D+00
   147  1.4600000000000D+00  2.4048695731979D-02  1.3872143530863D+00
   148  1.4700000000000D+00  8.0351426779596D-03  1.3895422565289D+00
   149  1.4800000000000D+00 -7.3524883265321D-03  1.3903208876465D+00
   150  1.4900000000000D+00 -2.2106105524820D-02  1.3895432783203D+00
   151  1.5000000000000D+00 -3.6219234265262D-02  1.3872062816204D+00
   152  1.5100000000000D+00 -4.9687002535401D-02  1.3833106126047D+00
   153  1.5200000000000D+00 -6.2506120966640D-02  1.3778608763022D+00
   154  1.5300000000000D+00 -7.4674857484786D-02  1.3708655826082D+00
   155  1.5400000000000D+00 -8.6193006872180D-02  1.3623371480768D+00
   156  1.5500000000000D+00 -9.7061855388980D-02  1.3522918842534D+00
   157  1.5600000000000D+00 -1.0728414081953D-01  1.3407499728109D+00
   158  1.5700000000000D+00 -1.1686400809408D-01  1.3277354271006D+00
   159  1.5800000000000D+00 -1.2580696089331D-01  1.3132760405498D+00
   160  1.5900000000000D+00 -1.3411980944000D-01  1.2974033216472D+00
   161  1.6000000000000D+00 -1.4181061487264D-01  1.2801524159647D+00
   162  1.6100000000000D+00 -1.4888863047106D-01  1.2615620151794D+00
   163  1.6200000000000D+00 -1.5536424011203D-01  1.2416742535239D+00
   164  1.6300000000000D+00 -1.6124889426764D-01  1.2205345918545D+00
   165  1.6400000000000D+00 -1.6655504391667D-01  1.1981916897491D+00
   166  1.6500000000000D+00 -1.7129607269824D-01  1.1746972660291D+00
   167  1.6600000000000D+00 -1.7548622767920D-01  1.1501059481188D+00
   168  1.6700000000000D+00 -1.7914054905657D-01  1.1244751108080D+00
   169  1.6800000000000D+00 -1.8227479917354D-01  1.0978647048571D+00
   170  1.6900000000000D+00 -1.8490539114329D-01  1.0703370761387D+00
   171  1.7000000000000D+00 -1.8704931746552D-01  1.0419567758102D+00
   172  1.7100000000000D+00 -1.8872407889278D-01  1.0127903622932D+00
   173  1.7200000000000D+00 -1.8994761392826D-01  9.8290619563488D-01
   174  1.7300000000000D+00 -1.9073822917569D-01  9.5237422506375D-01
   175  1.7400000000000D+00 -1.9111453089988D-01  9.2126577041775D-01
   176  1.7500000000000D+00 -1.9109535799619D-01  8.8965329825331D-01
   177  1.7600000000000D+00 -1.9069971667141D-01  8.5761019342382D-01
   178  1.7700000000000D+00 -1.8994671704130D-01  8.2521052691083D-01
   179  1.7800000000000D+00 -1.8885551184619D-01  7.9252882078972D-01
   180  1.7900000000000D+00 -1.8744523753876D-01  7.5963981109401D-01
   181  1.8000000000000D+00 -1.8573495779045D-01  7.2661820950129D-01
   182  1.8100000000000D+00 -1.8374360977026D-01  6.9353846463217D-01
   183  1.8200000000000D+00 -1.8148995303125D-01  6.6047452382785D-01
   184  1.8300000000000D+00 -1.7899252150779D-01  6.2749959632100D-01
   185  1.8400000000000D+00 -1.7626957820715D-01  5.9468591846377D-01
   186  1.8500000000000D+00 -1.7333907324517D-01  5.6210452215903D-01
   187  1.8600000000000D+00 -1.7021860465053D-01  5.2982500688200D-01
   188  1.8700000000000D+00 -1.6692538253815D-01  4.9791531661132D-01
   189  1.8800000000000D+00 -1.6347619616514D-01  4.6644152192127D-01
   190  1.8900000000000D+00 -1.5988738420110D-01  4.3546760847274D-01
   191  1.9000000000000D+00 -1.5617480797835D-01  4.0505527230736D-01
   192  1.9100000000000D+00 -1.5235382768781D-01  3.7526372274504D-01
   193  1.9200000000000D+00 -1.4843928159172D-01  3.4614949380717D-01
   194  1.9300000000000D+00 -1.4444546785507D-01  3.1776626413108D-01
   195  1.9400000000000D+00 -1.4038612931150D-01  2.9016468710151D-01
   196  1.9500000000000D+00 -1.3627444057305D-01  2.6339223029254D-01
   197  1.9600000000000D+00 -1.3212299777745D-01  2.3749302633659D-01
   198  1.9700000000000D+00 -1.2794381051481D-01  2.1250773429148D-01
   199  1.9800000000000D+00 -1.2374829593773D-01  1.8847341284391D-01
   200  1.9900000000000D+00 -1.1954727487955D-01  1.6542340557543D-01
   201  2.0000000000000D+00 -1.1535096971973D-01  1.4338723789611D-01
   202  2.0100000000000D+00 -1.1116900395354D-01  1.2239052752809D-01
   203  2.0200000000000D+00 -1.0701040318189D-01  1.0245490658523D-01
   204  2.0300000000000D+00 -1.0288359737995D-01  8.3597957721264D-02
   205  2.0400000000000D+00 -9.8796424287132D-02  6.5833162702021D-02
   206  2.0500000000000D+00 -9.4756133708638D-02  4.9169864204768D-02
   207  2.0600000000000D+00 -9.0769392506457D-02  3.3613241516425D-02
   208  2.0700000000000D+00 -8.6842290309781D-02  1.9164298078905D-02
   209  2.0800000000000D+00 -8.2980344684935D-02  5.8198604987236D-03
   210  2.0900000000000D+00 -7.9188509891419D-02 -6.4273967682369D-03
   211  2.1000000000000D+00 -7.5471181748130D-02 -1.7588930645874D-02
   212  2.1100000000000D+00 -7.1832192309453D-02 -2.7680339182454D-02
   213  2.1200000000000D+00 -6.8274857443557D-02 -3.6721133170435D-02
   214  2.1300000000000D+00 -6.4801944921254D-02 -4.4734827534312D-02
   215  2.1400000000000D+00 -6.1415642686353D-02 -5.1749038838664D-02
   216  2.1500000000000D+00 -5.8117598789966D-02 -5.7795241622153D-02
   217  2.1600000000000D+00 -5.4909037501482D-02 -6.2908177522158D-02
   218  2.1700000000000D+00 -5.1790822168940D-02 -6.7125458849418D-02
   219  2.1800000000000D+00 -4.8763537319892D-02 -7.0487163707687D-02
   220  2.1900000000000D+00 -4.5827601375164D-02 -7.3035251211970D-02
   221  2.2000000000000D+00 -4.2983352445595D-02 -7.4813097306680D-02
   222  2.2100000000000D+00 -4.0231016682686D-02 -7.5865539796027D-02
   223  2.2200000000000D+00 -3.7570705071639D-02 -7.6238808011881D-02
   224  2.2300000000000D+00 -3.5002451993062D-02 -7.5980227271732D-02
   225  2.2400000000000D+00 -3.2526233255292D-02 -7.5138011788420D-02
   226  2.2500000000000D+00 -3.0141971476526D-02 -7.3761108600282D-02
   227  2.2600000000000D+00 -2.7849552887719D-02 -7.1898975503481D-02
   228  2.2700000000000D+00 -2.5648836621022D-02 -6.9601387561024D-02
   229  2.2800000000000D+00 -2.3539663589443D-02 -6.6918237257560D-02
   230  2.2900000000000D+00 -2.1521863668373D-02 -6.3899335086946D-02
   231  2.3000000000000D+00 -1.9595261813074D-02 -6.0594211195315D-02
   232  2.3100000000000D+00 -1.7759682518138D-02 -5.7051919322988D-02
   233  2.3200000000000D+00 -1.6014953060984D-02 -5.3320843581566D-02
   234  2.3300000000000D+00 -1.4360905778880D-02 -4.9448508161279D-02
   235  2.3400000000000D+00 -1.2797378966670D-02 -4.5481392518237D-02
   236  2.3500000000000D+00 -1.1324216974358D-02 -4.1464750912783D-02
   237  2.3600000000000D+00 -9.9412694267931D-03 -3.7442437517576D-02
   238  2.3700000000000D+00 -8.6483896224289D-03 -3.3456739337089D-02
   239  2.3800000000000D+00 -7.4454322957024D-03 -2.9548215009996D-02
   240  2.3900000000000D+00 -6.3322508398324D-03 -2.5755541896577D-02
   241  2.4000000000000D+00 -5.3086941631365D-03 -2.2115372725726D-02
   242  2.4100000000000D+00 -4.3746030476590D-03 -1.8662199444275D-02
   243  2.4200000000000D+00 -3.5298064274391D-03 -1.5428228040918D-02
   244  2.4300000000000D+00 -2.7745255856295D-03 -1.2446120434899D-02
   245  2.4400000000000D+00 -2.1079394296094D-03 -9.7388721734025D-03
   246  2.4500000000000D+00 -1.5293625678240D-03 -7.3279939696470D-03
   247  2.4600000000000D+00 -1.0372956691497D-03 -5.2226007092180D-03
   248  2.4700000000000D+00 -6.3472765875785D-04 -3.4718640946878D-03
   249  2.4800000000000D+00 -3.2356614352683D-04 -2.1112281260162D-03
   250  2.4900000000000D+00 -1.0309314563474D-04 -1.1737794948200D-03
   251  2.5000000000000D+00  3.1991344279969D-05 -5.8578495828422D-04
   252  2.5100000000000D+00  9.2075795580038D-05 -2.6026601809360D-04
   253  2.5200000000000D+00  8.7326669608717D-05 -8.8731224592934D-05
   254  2.5300000000000D+00  4.8867661490940D-05 -1.8080220043939D-05
   255  2.5400000000000D+00  4.5282079107278D-06 -3.3994311490201D-07
   256  2.5500000000000D+00 -1.4369264407827D-05 -8.3212408397358D-07
   257  2.5600000000000D+00 -1.3733286921817D-05 -2.7442442606255D-06
   258  2.5700000000000D+00 -2.2378659437985D-06 -6.6956232925816D-07
   259  2.5800000000000D+00  2.7499842617360D-06 -7.5630899592581D-07
   260  2.5900000000000D+00  3.0947870889118D-06 -6.4449515848029D-07
   261  2.6000000000000D+00  7.7816712904570D-07 -1.1959242742555D-07
   262  2.6100000000000D+00 -1.9886037148033D-07  4.9935225631229D-07
   263  2.6200000000000D+00 -2.5876693517252D-07  6.4978181412173D-07
   264  2.6300000000000D+00 -9.3379833213238D-08  2.3448327116148D-07
   265  2.6400000000000D+00  0.0000000000000D+00  0.0000000000000D+00
   266  2.6500000000000D+00  0.0000000000000D+00  0.0000000000000D+00
   267  2.6600000000000D+00  0.0000000000000D+00  0.0000000000000D+00
   268  2.6700000000000D+00  0.0000000000000D+00  0.0000000000000D+00
   269  2.6800000000000D+00  0.0000000000000D+00  0.0000000000000D+00
   270  2.6900000000000D+00  0.0000000000000D+00  0.0000000000000D+00
   271  2.7000000000000D+00  0.0000000000000D+00  0.0000000000000D+00
   272  2.7100000000000D+00  0.0000000000000D+00  0.0000000000000D+00
   273  2.7200000000000D+00  0.0000000000000D+00  0.0000000000000D+00
   274  2.7300000000000D+00  0.0000000000000D+00  0.0000000000000D+00
   275  2.7400000000000D+00  0.0000000000000D+00  0.0000000000000D+00
   276  2.7500000000000D+00  0.0000000000000D+00  0.0000000000000D+00
   277  2.7600000000000D+00  0.0000000000000D+00  0.0000000000000D+00
   278  2.7700000000000D+00  0.0000000000000D+00  0.0000000000000D+00
   279  2.7800000000000D+00  0.0000000000000D+00  0.0000000000000D+00
   280  2.7900000000000D+00  0.0000000000000D+00  0.0000000000000D+00
   281  2.8000000000000D+00  0.0000000000000D+00  0.0000000000000D+00
   282  2.8100000000000D+00  0.0000000000000D+00  0.0000000000000D+00
   283  2.8200000000000D+00  0.0000000000000D+00  0.0000000000000D+00
   284  2.8300000000000D+00  0.0000000000000D+00  0.0000000000000D+00
   285  2.8400000000000D+00  0.0000000000000D+00  0.0000000000000D+00
   286  2.8500000000000D+00  0.0000000000000D+00  0.0000000000000D+00
   287  2.8600000000000D+00  0.0000000000000D+00  0.0000000000000D+00
   288  2.8700000000000D+00  0.0000000000000D+00  0.0000000000000D+00
   289  2.8800000000000D+00  0.0000000000000D+00  0.0000000000000D+00
   290  2.8900000000000D+00  0.0000000000000D+00  0.0000000000000D+00
   291  2.9000000000000D+00  0.0000000000000D+00  0.0000000000000D+00
   292  2.9100000000000D+00  0.0000000000000D+00  0.0000000000000D+00
   293  2.9200000000000D+00  0.0000000000000D+00  0.0000000000000D+00
   294  2.9300000000000D+00  0.0000000000000D+00  0.0000000000000D+00
   295  2.9400000000000D+00  0.0000000000000D+00  0.0000000000000D+00
   296  2.9500000000000D+00  0.0000000000000D+00  0.0000000000000D+00
   297  2.9600000000000D+00  0.0000000000000D+00  0.0000000000000D+00
   298  2.9700000000000D+00  0.0000000000000D+00  0.0000000000000D+00
   299  2.9800000000000D+00  0.0000000000000D+00  0.0000000000000D+00
   300  2.9900000000000D+00  0.0000000000000D+00  0.0000000000000D+00
   301  3.0000000000000D+00  0.0000000000000D+00  0.0000000000000D+00
   302  3.0100000000000D+00  0.0000000000000D+00  0.0000000000000D+00
   303  3.0200000000000D+00  0.0000000000000D+00  0.0000000000000D+00
   304  3.0300000000000D+00  0.0000000000000D+00  0.0000000000000D+00
   305  3.0400000000000D+00  0.0000000000000D+00  0.0000000000000D+00
   306  3.0500000000000D+00  0.0000000000000D+00  0.0000000000000D+00
   307  3.0600000000000D+00  0.0000000000000D+00  0.0000000000000D+00
   308  3.0700000000000D+00  0.0000000000000D+00  0.0000000000000D+00
   309  3.0800000000000D+00  0.0000000000000D+00  0.0000000000000D+00
   310  3.0900000000000D+00  0.0000000000000D+00  0.0000000000000D+00
   311  3.1000000000000D+00  0.0000000000000D+00  0.0000000000000D+00
   312  3.1100000000000D+00  0.0000000000000D+00  0.0000000000000D+00
   313  3.1200000000000D+00  0.0000000000000D+00  0.0000000000000D+00
   314  3.1300000000000D+00  0.0000000000000D+00  0.0000000000000D+00
   315  3.1400000000000D+00  0.0000000000000D+00  0.0000000000000D+00
   316  3.1500000000000D+00  0.0000000000000D+00  0.0000000000000D+00
   317  3.1600000000000D+00  0.0000000000000D+00  0.0000000000000D+00
   318  3.1700000000000D+00  0.0000000000000D+00  0.0000000000000D+00
   319  3.1800000000000D+00  0.0000000000000D+00  0.0000000000000D+00
   320  3.1900000000000D+00  0.0000000000000D+00  0.0000000000000D+00
   321  3.2000000000000D+00  0.0000000000000D+00  0.0000000000000D+00
   322  3.2100000000000D+00  0.0000000000000D+00  0.0000000000000D+00
   323  3.2200000000000D+00  0.0000000000000D+00  0.0000000000000D+00
   324  3.2300000000000D+00  0.0000000000000D+00  0.0000000000000D+00
   325  3.2400000000000D+00  0.0000000000000D+00  0.0000000000000D+00
   326  3.2500000000000D+00  0.0000000000000D+00  0.0000000000000D+00
   327  3.2600000000000D+00  0.0000000000000D+00  0.0000000000000D+00
   328  3.2700000000000D+00  0.0000000000000D+00  0.0000000000000D+00
   329  3.2800000000000D+00  0.0000000000000D+00  0.0000000000000D+00
   330  3.2900000000000D+00  0.0000000000000D+00  0.0000000000000D+00
   331  3.3000000000000D+00  0.0000000000000D+00  0.0000000000000D+00
   332  3.3100000000000D+00  0.0000000000000D+00  0.0000000000000D+00
   333  3.3200000000000D+00  0.0000000000000D+00  0.0000000000000D+00
   334  3.3300000000000D+00  0.0000000000000D+00  0.0000000000000D+00
   335  3.3400000000000D+00  0.0000000000000D+00  0.0000000000000D+00
   336  3.3500000000000D+00  0.0000000000000D+00  0.0000000000000D+00
   337  3.3600000000000D+00  0.0000000000000D+00  0.0000000000000D+00
   338  3.3700000000000D+00  0.0000000000000D+00  0.0000000000000D+00
   339  3.3800000000000D+00  0.0000000000000D+00  0.0000000000000D+00
   340  3.3900000000000D+00  0.0000000000000D+00  0.0000000000000D+00
   341  3.4000000000000D+00  0.0000000000000D+00  0.0000000000000D+00
   342  3.4100000000000D+00  0.0000000000000D+00  0.0000000000000D+00
   343  3.4200000000000D+00  0.0000000000000D+00  0.0000000000000D+00
   344  3.4300000000000D+00  0.0000000000000D+00  0.0000000000000D+00
   345  3.4400000000000D+00  0.0000000000000D+00  0.0000000000000D+00
   346  3.4500000000000D+00  0.0000000000000D+00  0.0000000000000D+00
   347  3.4600000000000D+00  0.0000000000000D+00  0.0000000000000D+00
   348  3.4700000000000D+00  0.0000000000000D+00  0.0000000000000D+00
   349  3.4800000000000D+00  0.0000000000000D+00  0.0000000000000D+00
   350  3.4900000000000D+00  0.0000000000000D+00  0.0000000000000D+00
   351  3.5000000000000D+00  0.0000000000000D+00  0.0000000000000D+00
   352  3.5100000000000D+00  0.0000000000000D+00  0.0000000000000D+00
   353  3.5200000000000D+00  0.0000000000000D+00  0.0000000000000D+00
   354  3.5300000000000D+00  0.0000000000000D+00  0.0000000000000D+00
   355  3.5400000000000D+00  0.0000000000000D+00  0.0000000000000D+00
   356  3.5500000000000D+00  0.0000000000000D+00  0.0000000000000D+00
   357  3.5600000000000D+00  0.0000000000000D+00  0.0000000000000D+00
   358  3.5700000000000D+00  0.0000000000000D+00  0.0000000000000D+00
   359  3.5800000000000D+00  0.0000000000000D+00  0.0000000000000D+00
   360  3.5900000000000D+00  0.0000000000000D+00  0.0000000000000D+00
   361  3.6000000000000D+00  0.0000000000000D+00  0.0000000000000D+00
   362  3.6100000000000D+00  0.0000000000000D+00  0.0000000000000D+00
   363  3.6200000000000D+00  0.0000000000000D+00  0.0000000000000D+00
   364  3.6300000000000D+00  0.0000000000000D+00  0.0000000000000D+00
   365  3.6400000000000D+00  0.0000000000000D+00  0.0000000000000D+00
   366  3.6500000000000D+00  0.0000000000000D+00  0.0000000000000D+00
   367  3.6600000000000D+00  0.0000000000000D+00  0.0000000000000D+00
   368  3.6700000000000D+00  0.0000000000000D+00  0.0000000000000D+00
   369  3.6800000000000D+00  0.0000000000000D+00  0.0000000000000D+00
   370  3.6900000000000D+00  0.0000000000000D+00  0.0000000000000D+00
   371  3.7000000000000D+00  0.0000000000000D+00  0.0000000000000D+00
   372  3.7100000000000D+00  0.0000000000000D+00  0.0000000000000D+00
   373  3.7200000000000D+00  0.0000000000000D+00  0.0000000000000D+00
   374  3.7300000000000D+00  0.0000000000000D+00  0.0000000000000D+00
   375  3.7400000000000D+00  0.0000000000000D+00  0.0000000000000D+00
   376  3.7500000000000D+00  0.0000000000000D+00  0.0000000000000D+00
   377  3.7600000000000D+00  0.0000000000000D+00  0.0000000000000D+00
   378  3.7700000000000D+00  0.0000000000000D+00  0.0000000000000D+00
   379  3.7800000000000D+00  0.0000000000000D+00  0.0000000000000D+00
   380  3.7900000000000D+00  0.0000000000000D+00  0.0000000000000D+00
   381  3.8000000000000D+00  0.0000000000000D+00  0.0000000000000D+00
   382  3.8100000000000D+00  0.0000000000000D+00  0.0000000000000D+00
   383  3.8200000000000D+00  0.0000000000000D+00  0.0000000000000D+00
   384  3.8300000000000D+00  0.0000000000000D+00  0.0000000000000D+00
   385  3.8400000000000D+00  0.0000000000000D+00  0.0000000000000D+00
   386  3.8500000000000D+00  0.0000000000000D+00  0.0000000000000D+00
   387  3.8600000000000D+00  0.0000000000000D+00  0.0000000000000D+00
   388  3.8700000000000D+00  0.0000000000000D+00  0.0000000000000D+00
   389  3.8800000000000D+00  0.0000000000000D+00  0.0000000000000D+00
   390  3.8900000000000D+00  0.0000000000000D+00  0.0000000000000D+00
   391  3.9000000000000D+00  0.0000000000000D+00  0.0000000000000D+00
   392  3.9100000000000D+00  0.0000000000000D+00  0.0000000000000D+00
   393  3.9200000000000D+00  0.0000000000000D+00  0.0000000000000D+00
   394  3.9300000000000D+00  0.0000000000000D+00  0.0000000000000D+00
   395  3.9400000000000D+00  0.0000000000000D+00  0.0000000000000D+00
   396  3.9500000000000D+00  0.0000000000000D+00  0.0000000000000D+00
   397  3.9600000000000D+00  0.0000000000000D+00  0.0000000000000D+00
   398  3.9700000000000D+00  0.0000000000000D+00  0.0000000000000D+00
   399  3.9800000000000D+00  0.0000000000000D+00  0.0000000000000D+00
   400  3.9900000000000D+00  0.0000000000000D+00  0.0000000000000D+00
   401  4.0000000000000D+00  0.0000000000000D+00  0.0000000000000D+00
   402  4.0100000000000D+00  0.0000000000000D+00  0.0000000000000D+00
   403  4.0200000000000D+00  0.0000000000000D+00  0.0000000000000D+00
   404  4.0300000000000D+00  0.0000000000000D+00  0.0000000000000D+00
   405  4.0400000000000D+00  0.0000000000000D+00  0.0000000000000D+00
   406  4.0500000000000D+00  0.0000000000000D+00  0.0000000000000D+00
   407  4.0600000000000D+00  0.0000000000000D+00  0.0000000000000D+00
   408  4.0700000000000D+00  0.0000000000000D+00  0.0000000000000D+00
   409  4.0800000000000D+00  0.0000000000000D+00  0.0000000000000D+00
   410  4.0900000000000D+00  0.0000000000000D+00  0.0000000000000D+00
   411  4.1000000000000D+00  0.0000000000000D+00  0.0000000000000D+00
   412  4.1100000000000D+00  0.0000000000000D+00  0.0000000000000D+00
   413  4.1200000000000D+00  0.0000000000000D+00  0.0000000000000D+00
   414  4.1300000000000D+00  0.0000000000000D+00  0.0000000000000D+00
   415  4.1400000000000D+00  0.0000000000000D+00  0.0000000000000D+00
   416  4.1500000000000D+00  0.0000000000000D+00  0.0000000000000D+00
   417  4.1600000000000D+00  0.0000000000000D+00  0.0000000000000D+00
   418  4.1700000000000D+00  0.0000000000000D+00  0.0000000000000D+00
   419  4.1800000000000D+00  0.0000000000000D+00  0.0000000000000D+00
   420  4.1900000000000D+00  0.0000000000000D+00  0.0000000000000D+00
   421  4.2000000000000D+00  0.0000000000000D+00  0.0000000000000D+00
   422  4.2100000000000D+00  0.0000000000000D+00  0.0000000000000D+00