In    ONCVPSP-3.3.0  r_core=   2.10853   2.37566   1.87143
     49.0000     13.0000      220117    zatom,zion,pspd
     8      11   2     4   600     0    pspcod,pspxc,lmax,lloc,mmax,r2well
  5.99000000  0.00000000  0.00000000    rchrg fchrg qchrg
     2     2     2     0     0    nproj
     1     1           extension_switch
   0                         1.2954318712984D+01  1.9277128445714D+00
     1  0.0000000000000D+00 -1.9895418645888D-10  2.0076251772139D-10
     2  1.0000000000000D-02  5.9081042351161D-02 -4.0730854531323D-02
     3  2.0000000000000D-02  1.1788228035367D-01 -8.1186462034160D-02
     4  3.0000000000000D-02  1.7612552538877D-01 -1.2109317138845D-01
     5  4.0000000000000D-02  2.3353581110088D-01 -1.6018051413601D-01
     6  5.0000000000000D-02  2.8984298158803D-01 -1.9818277297482D-01
     7  6.0000000000000D-02  3.4478325220368D-01 -2.3484052299156D-01
     8  7.0000000000000D-02  3.9810073407434D-01 -2.6990213678089D-01
     9  8.0000000000000D-02  4.4954891363626D-01 -3.0312524480126D-01
    10  9.0000000000000D-02  4.9889207874144D-01 -3.3427814256543D-01
    11  1.0000000000000D-01  5.4590668317635D-01 -3.6314113656040D-01
    12  1.1000000000000D-01  5.9038264177564D-01 -3.8950782113242D-01
    13  1.2000000000000D-01  6.3212454869472D-01 -4.1318627895797D-01
    14  1.3000000000000D-01  6.7095281182857D-01 -4.3400019814848D-01
    15  1.4000000000000D-01  7.0670469682679D-01 -4.5178989950251D-01
    16  1.5000000000000D-01  7.3923527465428D-01 -4.6641326792245D-01
    17  1.6000000000000D-01  7.6841826718112D-01 -4.7774658255057D-01
    18  1.7000000000000D-01  7.9414678585021D-01 -4.8568524074816D-01
    19  1.8000000000000D-01  8.1633395906572D-01 -4.9014437163947D-01
    20  1.9000000000000D-01  8.3491344456464D-01 -4.9105933556539D-01
    21  2.0000000000000D-01  8.4983982367607D-01 -4.8838610643687D-01
    22  2.1000000000000D-01  8.6108887503323D-01 -4.8210153464220D-01
    23  2.2000000000000D-01  8.6865772597979D-01 -4.7220348884109D-01
    24  2.3000000000000D-01  8.7256488060007D-01 -4.5871087566912D-01
    25  2.4000000000000D-01  8.7285012399888D-01 -4.4166353707392D-01
    26  2.5000000000000D-01  8.6957430315725D-01 -4.2112202570636D-01
    27  2.6000000000000D-01  8.6281898539175D-01 -3.9716725949208D-01
    28  2.7000000000000D-01  8.5268599614276D-01 -3.6990005720621D-01
    29  2.8000000000000D-01  8.3929683850790D-01 -3.3944055756442D-01
    30  2.9000000000000D-01  8.2279199761695D-01 -3.0592752502172D-01
    31  3.0000000000000D-01  8.0333013360934D-01 -2.6951754613294D-01
    32  3.1000000000000D-01  7.8108716762219D-01 -2.3038412097228D-01
    33  3.2000000000000D-01  7.5625526582116D-01 -1.8871665472944D-01
    34  3.3000000000000D-01  7.2904172710499D-01 -1.4471935519305D-01
    35  3.4000000000000D-01  6.9966778068380D-01 -9.8610042395452D-02
    36  3.5000000000000D-01  6.6836730026792D-01 -5.0618877221920D-02
    37  3.6000000000000D-01  6.3538544210457D-01 -9.8701628014915D-04
    38  3.7000000000000D-01  6.0097721456143D-01  5.0034799221870D-02
    39  3.8000000000000D-01  5.6540598737624D-01  1.0218771243165D-01
    40  3.9000000000000D-01  5.2894194906655D-01  1.5520626911979D-01
    41  4.0000000000000D-01  4.9186052132268D-01  2.0881997642084D-01
    42  4.1000000000000D-01  4.5444073948596D-01  2.6275489294291D-01
    43  4.2000000000000D-01  4.1696360844281D-01  3.1673524092717D-01
    44  4.3000000000000D-01  3.7971044344071D-01  3.7048503097719D-01
    45  4.4000000000000D-01  3.4296120545363D-01  4.2372968977292D-01
    46  4.5000000000000D-01  3.0699284079059D-01  4.7619768113318D-01
    47  4.6000000000000D-01  2.7207763465141D-01  5.2762211079800D-01
    48  4.7000000000000D-01  2.3848158828745D-01  5.7774230536494D-01
    49  4.8000000000000D-01  2.0646282932223D-01  6.2630535593460D-01
    50  4.9000000000000D-01  1.7627006462764D-01  6.7306761719782D-01
    51  5.0000000000000D-01  1.4814108493622D-01  7.1779615293010D-01
    52  5.1000000000000D-01  1.2230133009976D-01  7.6027011914796D-01
    53  5.2000000000000D-01  9.8962523580277D-02  8.0028207652385D-01
    54  5.3000000000000D-01  7.8321384382863D-02  8.3763922405140D-01
    55  5.4000000000000D-01  6.0558424213108D-02  8.7216454639692D-01
    56  5.5000000000000D-01  4.5836837165892D-02  9.0369786786672D-01
    57  5.6000000000000D-01  3.4301488731328D-02  9.3209680645739D-01
    58  5.7000000000000D-01  2.6078010339328D-02  9.5723762203650D-01
    59  5.8000000000000D-01  2.1272005059011D-02  9.7901595332173D-01
    60  5.9000000000000D-01  1.9968369429064D-02  9.9734743898067D-01
    61  6.0000000000000D-01  2.2230735719545D-02  1.0121682188620D+00
    62  6.1000000000000D-01  2.8101038222980D-02  1.0234353120833D+00
    63  6.2000000000000D-01  3.7599206443646D-02  1.0311268694403D+00
    64  6.3000000000000D-01  5.0722987302531D-02  1.0352422983611D+00
    65  6.4000000000000D-01  6.7447897712562D-02  1.0358022594013D+00
    66  6.5000000000000D-01  8.7727308096353D-02  1.0328485340613D+00
    67  6.6000000000000D-01  1.1149265663522D-01  1.0264437644946D+00
    68  6.7000000000000D-01  1.3865379325146D-01  1.0166710664657D+00
    69  6.8000000000000D-01  1.6909945153696D-01  1.0036335177008D+00
    70  6.9000000000000D-01  2.0269784606474D-01  9.8745352455231D-01
    71  7.0000000000000D-01  2.3929739175415D-01  9.6827207065570D-01
    72  7.1000000000000D-01  2.7872754121017D-01  9.4624785200154D-01
    73  7.2000000000000D-01  3.2079973522938D-01  9.2155630356370D-01
    74  7.3000000000000D-01  3.6530846096525D-01  8.9438852331196D-01
    75  7.4000000000000D-01  4.1203241157426D-01  8.6495010009445D-01
    76  7.5000000000000D-01  4.6073574053081D-01  8.3345985249161D-01
    77  7.6000000000000D-01  5.1116940320349D-01  8.0014848632005D-01
    78  7.7000000000000D-01  5.6307257773367D-01  7.6525717899447D-01
    79  7.8000000000000D-01  6.1617415675433D-01  7.2903609943500D-01
    80  7.9000000000000D-01  6.7019430103411D-01  6.9174287263474D-01
    81  8.0000000000000D-01  7.2484604573253D-01  6.5364099837265D-01
    82  8.1000000000000D-01  7.7983694961126D-01  6.1499823386871D-01
    83  8.2000000000000D-01  8.3487077726339D-01  5.7608495042819D-01
    84  8.3000000000000D-01  8.8964920420274D-01  5.3717247430923D-01
    85  8.4000000000000D-01  9.4387353449776D-01  4.9853142216931D-01
    86  8.5000000000000D-01  9.9724642054190D-01  4.6043004150211D-01
    87  8.6000000000000D-01  1.0494735745262D+00  4.2313256646504D-01
    88  8.7000000000000D-01  1.1002654612183D+00  3.8689759941916D-01
    89  8.8000000000000D-01  1.1493389617588D+00  3.5197652835772D-01
    90  8.9000000000000D-01  1.1964189983558D+00  3.1861199018749D-01
    91  9.0000000000000D-01  1.2412401099968D+00  2.8703638954942D-01
    92  9.1000000000000D-01  1.2835479695958D+00  2.5747048252391D-01
    93  9.2000000000000D-01  1.3231008333565D+00  2.3012203416207D-01
    94  9.3000000000000D-01  1.3596709135555D+00  2.0518455832157D-01
    95  9.4000000000000D-01  1.3930456664270D+00  1.8283614776520D-01
    96  9.5000000000000D-01  1.4230289873681D+00  1.6323840190698D-01
    97  9.6000000000000D-01  1.4494423062654D+00  1.4653545896637D-01
    98  9.7000000000000D-01  1.4721255763788D+00  1.3285313862313D-01
    99  9.8000000000000D-01  1.4909381508992D+00  1.2229820054474D-01
   100  9.9000000000000D-01  1.5057595419991D+00  1.1495772342725D-01
   101  1.0000000000000D+00  1.5164900579570D+00  1.1089860839255D-01
   102  1.0100000000000D+00  1.5230513147147D+00  1.1016720978110D-01
   103  1.0200000000000D+00  1.5253866190237D+00  1.1278909555276D-01
   104  1.0300000000000D+00  1.5234612211644D+00  1.1876893866016D-01
   105  1.0400000000000D+00  1.5172624360617D+00  1.2809053989597D-01
   106  1.0500000000000D+00  1.5067996324635D+00  1.4071698185579D-01
   107  1.0600000000000D+00  1.4921040906681D+00  1.5659091282618D-01
   108  1.0700000000000D+00  1.4732287301854D+00  1.7563495849559D-01
   109  1.0800000000000D+00  1.4502477094997D+00  1.9775225859887D-01
   110  1.0900000000000D+00  1.4232559009560D+00  2.2282712474648D-01
   111  1.1000000000000D+00  1.3923682445686D+00  2.5072581491693D-01
   112  1.1100000000000D+00  1.3577189853036D+00  2.8129741933925D-01
   113  1.1200000000000D+00  1.3194607991974D+00  3.1437485169492D-01
   114  1.1300000000000D+00  1.2777638143118D+00  3.4977593894075D-01
   115  1.1400000000000D+00  1.2328145332463D+00  3.8730460235553D-01
   116  1.1500000000000D+00  1.1848146644342D+00  4.2675212192087D-01
   117  1.1600000000000D+00  1.1339798701860D+00  4.6789847544593D-01
   118  1.1700000000000D+00  1.0805384398375D+00  5.1051374347542D-01
   119  1.1800000000000D+00  1.0247298968402D+00  5.5435957057494D-01
   120  1.1900000000000D+00  9.6680354901669D-01  5.9919067323711D-01
   121  1.2000000000000D+00  9.0701699160132D-01  6.4475638430138D-01
   122  1.2100000000000D+00  8.4563457288554D-01  6.9080222362988D-01
   123  1.2200000000000D+00  7.8292583247087D-01  7.3707148462429D-01
   124  1.2300000000000D+00  7.1916392235815D-01  7.8330682601933D-01
   125  1.2400000000000D+00  6.5462402105798D-01  8.2925185848162D-01
   126  1.2500000000000D+00  5.8958175093848D-01  8.7465271555069D-01
   127  1.2600000000000D+00  5.2431160900282D-01  9.1925959855270D-01
   128  1.2700000000000D+00  4.5908542100382D-01  9.6282828548064D-01
   129  1.2800000000000D+00  3.9417082869348D-01  1.0051215939744D+00
   130  1.2900000000000D+00  3.2982981979764D-01  1.0459107888137D+00
   131  1.3000000000000D+00  2.6631730964366D-01  1.0849769251008D+00
   132  1.3100000000000D+00  2.0387978332218D-01  1.1221121183641D+00
   133  1.3200000000000D+00  1.4275400674235D-01  1.1571207334266D+00
   134  1.3300000000000D+00  8.3165813910261D-02  1.1898204850217D+00
   135  1.3400000000000D+00  2.5328978082239D-02  1.2200434427844D+00
   136  1.3500000000000D+00 -3.0555826820316D-02  1.2476369346579D+00
   137  1.3600000000000D+00 -8.4301969201985D-02  1.2724643438813D+00
   138  1.3700000000000D+00 -1.3573770088587D-01  1.2944057936866D+00
   139  1.3800000000000D+00 -1.8470689300329D-01  1.3133587170778D+00
   140  1.3900000000000D+00 -2.3106966254651D-01  1.3292383081478D+00
   141  1.4000000000000D+00 -2.7470288617749D-01  1.3419778521992D+00
   142  1.4100000000000D+00 -3.1550060053428D-01  1.3515289347244D+00
   143  1.4200000000000D+00 -3.5337428608345D-01  1.3578615269881D+00
   144  1.4300000000000D+00 -3.8825303533839D-01  1.3609639499420D+00
   145  1.4400000000000D+00 -4.2008360544803D-01  1.3608427173111D+00
   146  1.4500000000000D+00 -4.4883035540750D-01  1.3575222589948D+00
   147  1.4600000000000D+00 -4.7447507175338D-01  1.3510445296304D+00
   148  1.4700000000000D+00 -4.9701668289774D-01  1.3414685033649D+00
   149  1.4800000000000D+00 -5.1647086792900D-01  1.3288695617076D+00
   150  1.4900000000000D+00 -5.3286956238789D-01  1.3133387779168D+00
   151  1.5000000000000D+00 -5.4626036638328D-01  1.2949821043236D+00
   152  1.5100000000000D+00 -5.5670586101858D-01  1.2739194695381D+00
   153  1.5200000000000D+00 -5.6428283768234D-01  1.2502837911438D+00
   154  1.5300000000000D+00 -5.6908144898433D-01  1.2242199135865D+00
   155  1.5400000000000D+00 -5.7120428581089D-01  1.1958834768198D+00
   156  1.5500000000000D+00 -5.7076539048544D-01  1.1654397265401D+00
   157  1.5600000000000D+00 -5.6788921184689D-01  1.1330622728846D+00
   158  1.5700000000000D+00 -5.6270951188938D-01  1.0989318080549D+00
   159  1.5800000000000D+00 -5.5536823137656D-01  1.0632347912147D+00
   160  1.5900000000000D+00 -5.4601432369102D-01  1.0261621107613D+00
   161  1.6000000000000D+00 -5.3480256510258D-01  9.8790773288407D-01
   162  1.6100000000000D+00 -5.2189235075529D-01  9.4866734660213D-01
   163  1.6200000000000D+00 -5.0744648433679D-01  9.0863701370282D-01
   164  1.6300000000000D+00 -4.9162997123295D-01  8.6801183435567D-01
   165  1.6400000000000D+00 -4.7460882194431D-01  8.2698463531108D-01
   166  1.6500000000000D+00 -4.5654887602063D-01  7.8574469055036D-01
   167  1.6600000000000D+00 -4.3761465429044D-01  7.4447649181830D-01
   168  1.6700000000000D+00 -4.1796823897969D-01  7.0335853191574D-01
   169  1.6800000000000D+00 -3.9776822173604D-01  6.6256224919769D-01
   170  1.6900000000000D+00 -3.7716866264376D-01  6.2225089307238D-01
   171  1.7000000000000D+00 -3.5631809038860D-01  5.8257836521636D-01
   172  1.7100000000000D+00 -3.3535869863880D-01  5.4368873406116D-01
   173  1.7200000000000D+00 -3.1442558290092D-01  5.0571574272625D-01
   174  1.7300000000000D+00 -2.9364610462272D-01  4.6878243486071D-01
   175  1.7400000000000D+00 -2.7313937183021D-01  4.3300105851836D-01
   176  1.7500000000000D+00 -2.5301569244818D-01  3.9847253999040D-01
   177  1.7600000000000D+00 -2.3337610787117D-01  3.6528601090165D-01
   178  1.7700000000000D+00 -2.1431204490060D-01  3.3351859214604D-01
   179  1.7800000000000D+00 -1.9590504064721D-01  3.0323521716678D-01
   180  1.7900000000000D+00 -1.7822656017416D-01  2.7448855901668D-01
   181  1.8000000000000D+00 -1.6133790010088D-01  2.4731905812087D-01
   182  1.8100000000000D+00 -1.4529018028094D-01  2.2175504486265D-01
   183  1.8200000000000D+00 -1.3012442022147D-01  1.9781295658708D-01
   184  1.8300000000000D+00 -1.1587169765214D-01  1.7549764490955D-01
   185  1.8400000000000D+00 -1.0255338916332D-01  1.5480277272027D-01
   186  1.8500000000000D+00 -9.0181483493792D-02  1.3571129027944D-01
   187  1.8600000000000D+00 -7.8758972069177D-02  1.1819599473416D-01
   188  1.8700000000000D+00 -6.8280300847664D-02  1.0222015559903D-01
   189  1.8800000000000D+00 -5.8731891203756D-02  8.7738213741857D-02
   190  1.8900000000000D+00 -5.0092711383588D-02  7.4696533882092D-02
   191  1.9000000000000D+00 -4.2334903638620D-02  6.3034215244057D-02
   192  1.9100000000000D+00 -3.5424452634148D-02  5.2683944772049D-02
   193  1.9200000000000D+00 -2.9321893047246D-02  4.3572889945359D-02
   194  1.9300000000000D+00 -2.3983048140005D-02  3.5623622073520D-02
   195  1.9400000000000D+00 -1.9359791322843D-02  2.8755061103262D-02
   196  1.9500000000000D+00 -1.5400825313534D-02  2.2883435484433D-02
   197  1.9600000000000D+00 -1.2052470541931D-02  1.7923248229116D-02
   198  1.9700000000000D+00 -9.2594546586714D-03  1.3788239349688D-02
   199  1.9800000000000D+00 -6.9656990876181D-03  1.0392340719795D-02
   200  1.9900000000000D+00 -5.1150908168049D-03  7.6506096842541D-03
   201  2.0000000000000D+00 -3.6522366635010D-03  5.4801385389036D-03
   202  2.0100000000000D+00 -2.5231922031883D-03  3.8009311279236D-03
   203  2.0200000000000D+00 -1.6761538485951D-03  2.5367335653048D-03
   204  2.0300000000000D+00 -1.0621208948995D-03  1.6158268986624D-03
   205  2.0400000000000D+00 -6.3553086500384D-04  9.7177906574003D-04
   206  2.0500000000000D+00 -3.5472576346452D-04  5.4403105311848D-04
   207  2.0600000000000D+00 -1.8250896487514D-04  2.7855729898277D-04
   208  2.0700000000000D+00 -8.6695153010369D-05  1.2851300022983D-04
   209  2.0800000000000D+00 -4.0617097412633D-05  5.4590568919236D-05
   210  2.0900000000000D+00 -2.3297582802232D-05  2.5569773270274D-05
   211  2.1000000000000D+00 -1.8757549068196D-05  1.7876963987469D-05
   212  2.1100000000000D+00 -1.6180507545656D-05  1.5547263834197D-05
   213  2.1200000000000D+00 -9.9169510100873D-06  9.8722031173846D-06
   214  2.1300000000000D+00 -2.4689979642989D-06  2.5433735626222D-06
   215  2.1400000000000D+00  1.5584679213547D-06 -1.5292042656489D-06
   216  2.1500000000000D+00  1.5731301816243D-06 -1.5612831379904D-06
   217  2.1600000000000D+00 -3.1885223417331D-08  2.8236893180816D-08
   218  2.1700000000000D+00 -3.5603666634328D-07  3.1350603175335D-07
   219  2.1800000000000D+00 -1.9738452248919D-07  1.7299899280759D-07
   220  2.1900000000000D+00  2.8195642022316D-08 -2.6990699746556D-08
   221  2.2000000000000D+00  4.6157022718158D-08 -4.4184499873943D-08
   222  2.2100000000000D+00  8.4401880917374D-09 -8.0794962004498D-09
   223  2.2200000000000D+00  0.0000000000000D+00  0.0000000000000D+00
   224  2.2300000000000D+00  0.0000000000000D+00  0.0000000000000D+00
   225  2.2400000000000D+00  0.0000000000000D+00  0.0000000000000D+00
   226  2.2500000000000D+00  0.0000000000000D+00  0.0000000000000D+00
   227  2.2600000000000D+00  0.0000000000000D+00  0.0000000000000D+00
   228  2.2700000000000D+00  0.0000000000000D+00  0.0000000000000D+00
   229  2.2800000000000D+00  0.0000000000000D+00  0.0000000000000D+00
   230  2.2900000000000D+00  0.0000000000000D+00  0.0000000000000D+00
   231  2.3000000000000D+00  0.0000000000000D+00  0.0000000000000D+00
   232  2.3100000000000D+00  0.0000000000000D+00  0.0000000000000D+00
   233  2.3200000000000D+00  0.0000000000000D+00  0.0000000000000D+00
   234  2.3300000000000D+00  0.0000000000000D+00  0.0000000000000D+00
   235  2.3400000000000D+00  0.0000000000000D+00  0.0000000000000D+00
   236  2.3500000000000D+00  0.0000000000000D+00  0.0000000000000D+00
   237  2.3600000000000D+00  0.0000000000000D+00  0.0000000000000D+00
   238  2.3700000000000D+00  0.0000000000000D+00  0.0000000000000D+00
   239  2.3800000000000D+00  0.0000000000000D+00  0.0000000000000D+00
   240  2.3900000000000D+00  0.0000000000000D+00  0.0000000000000D+00
   241  2.4000000000000D+00  0.0000000000000D+00  0.0000000000000D+00
   242  2.4100000000000D+00  0.0000000000000D+00  0.0000000000000D+00
   243  2.4200000000000D+00  0.0000000000000D+00  0.0000000000000D+00
   244  2.4300000000000D+00  0.0000000000000D+00  0.0000000000000D+00
   245  2.4400000000000D+00  0.0000000000000D+00  0.0000000000000D+00
   246  2.4500000000000D+00  0.0000000000000D+00  0.0000000000000D+00
   247  2.4600000000000D+00  0.0000000000000D+00  0.0000000000000D+00
   248  2.4700000000000D+00  0.0000000000000D+00  0.0000000000000D+00
   249  2.4800000000000D+00  0.0000000000000D+00  0.0000000000000D+00
   250  2.4900000000000D+00  0.0000000000000D+00  0.0000000000000D+00
   251  2.5000000000000D+00  0.0000000000000D+00  0.0000000000000D+00
   252  2.5100000000000D+00  0.0000000000000D+00  0.0000000000000D+00
   253  2.5200000000000D+00  0.0000000000000D+00  0.0000000000000D+00
   254  2.5300000000000D+00  0.0000000000000D+00  0.0000000000000D+00
   255  2.5400000000000D+00  0.0000000000000D+00  0.0000000000000D+00
   256  2.5500000000000D+00  0.0000000000000D+00  0.0000000000000D+00
   257  2.5600000000000D+00  0.0000000000000D+00  0.0000000000000D+00
   258  2.5700000000000D+00  0.0000000000000D+00  0.0000000000000D+00
   259  2.5800000000000D+00  0.0000000000000D+00  0.0000000000000D+00
   260  2.5900000000000D+00  0.0000000000000D+00  0.0000000000000D+00
   261  2.6000000000000D+00  0.0000000000000D+00  0.0000000000000D+00
   262  2.6100000000000D+00  0.0000000000000D+00  0.0000000000000D+00
   263  2.6200000000000D+00  0.0000000000000D+00  0.0000000000000D+00
   264  2.6300000000000D+00  0.0000000000000D+00  0.0000000000000D+00
   265  2.6400000000000D+00  0.0000000000000D+00  0.0000000000000D+00
   266  2.6500000000000D+00  0.0000000000000D+00  0.0000000000000D+00
   267  2.6600000000000D+00  0.0000000000000D+00  0.0000000000000D+00
   268  2.6700000000000D+00  0.0000000000000D+00  0.0000000000000D+00
   269  2.6800000000000D+00  0.0000000000000D+00  0.0000000000000D+00
   270  2.6900000000000D+00  0.0000000000000D+00  0.0000000000000D+00
   271  2.7000000000000D+00  0.0000000000000D+00  0.0000000000000D+00
   272  2.7100000000000D+00  0.0000000000000D+00  0.0000000000000D+00
   273  2.7200000000000D+00  0.0000000000000D+00  0.0000000000000D+00
   274  2.7300000000000D+00  0.0000000000000D+00  0.0000000000000D+00
   275  2.7400000000000D+00  0.0000000000000D+00  0.0000000000000D+00
   276  2.7500000000000D+00  0.0000000000000D+00  0.0000000000000D+00
   277  2.7600000000000D+00  0.0000000000000D+00  0.0000000000000D+00
   278  2.7700000000000D+00  0.0000000000000D+00  0.0000000000000D+00
   279  2.7800000000000D+00  0.0000000000000D+00  0.0000000000000D+00
   280  2.7900000000000D+00  0.0000000000000D+00  0.0000000000000D+00
   281  2.8000000000000D+00  0.0000000000000D+00  0.0000000000000D+00
   282  2.8100000000000D+00  0.0000000000000D+00  0.0000000000000D+00
   283  2.8200000000000D+00  0.0000000000000D+00  0.0000000000000D+00
   284  2.8300000000000D+00  0.0000000000000D+00  0.0000000000000D+00
   285  2.8400000000000D+00  0.0000000000000D+00  0.0000000000000D+00
   286  2.8500000000000D+00  0.0000000000000D+00  0.0000000000000D+00
   287  2.8600000000000D+00  0.0000000000000D+00  0.0000000000000D+00
   288  2.8700000000000D+00  0.0000000000000D+00  0.0000000000000D+00
   289  2.8800000000000D+00  0.0000000000000D+00  0.0000000000000D+00
   290  2.8900000000000D+00  0.0000000000000D+00  0.0000000000000D+00
   291  2.9000000000000D+00  0.0000000000000D+00  0.0000000000000D+00
   292  2.9100000000000D+00  0.0000000000000D+00  0.0000000000000D+00
   293  2.9200000000000D+00  0.0000000000000D+00  0.0000000000000D+00
   294  2.9300000000000D+00  0.0000000000000D+00  0.0000000000000D+00
   295  2.9400000000000D+00  0.0000000000000D+00  0.0000000000000D+00
   296  2.9500000000000D+00  0.0000000000000D+00  0.0000000000000D+00
   297  2.9600000000000D+00  0.0000000000000D+00  0.0000000000000D+00
   298  2.9700000000000D+00  0.0000000000000D+00  0.0000000000000D+00
   299  2.9800000000000D+00  0.0000000000000D+00  0.0000000000000D+00
   300  2.9900000000000D+00  0.0000000000000D+00  0.0000000000000D+00
   301  3.0000000000000D+00  0.0000000000000D+00  0.0000000000000D+00
   302  3.0100000000000D+00  0.0000000000000D+00  0.0000000000000D+00
   303  3.0200000000000D+00  0.0000000000000D+00  0.0000000000000D+00
   304  3.0300000000000D+00  0.0000000000000D+00  0.0000000000000D+00
   305  3.0400000000000D+00  0.0000000000000D+00  0.0000000000000D+00
   306  3.0500000000000D+00  0.0000000000000D+00  0.0000000000000D+00
   307  3.0600000000000D+00  0.0000000000000D+00  0.0000000000000D+00
   308  3.0700000000000D+00  0.0000000000000D+00  0.0000000000000D+00
   309  3.0800000000000D+00  0.0000000000000D+00  0.0000000000000D+00
   310  3.0900000000000D+00  0.0000000000000D+00  0.0000000000000D+00
   311  3.1000000000000D+00  0.0000000000000D+00  0.0000000000000D+00
   312  3.1100000000000D+00  0.0000000000000D+00  0.0000000000000D+00
   313  3.1200000000000D+00  0.0000000000000D+00  0.0000000000000D+00
   314  3.1300000000000D+00  0.0000000000000D+00  0.0000000000000D+00
   315  3.1400000000000D+00  0.0000000000000D+00  0.0000000000000D+00
   316  3.1500000000000D+00  0.0000000000000D+00  0.0000000000000D+00
   317  3.1600000000000D+00  0.0000000000000D+00  0.0000000000000D+00
   318  3.1700000000000D+00  0.0000000000000D+00  0.0000000000000D+00
   319  3.1800000000000D+00  0.0000000000000D+00  0.0000000000000D+00
   320  3.1900000000000D+00  0.0000000000000D+00  0.0000000000000D+00
   321  3.2000000000000D+00  0.0000000000000D+00  0.0000000000000D+00
   322  3.2100000000000D+00  0.0000000000000D+00  0.0000000000000D+00
   323  3.2200000000000D+00  0.0000000000000D+00  0.0000000000000D+00
   324  3.2300000000000D+00  0.0000000000000D+00  0.0000000000000D+00
   325  3.2400000000000D+00  0.0000000000000D+00  0.0000000000000D+00
   326  3.2500000000000D+00  0.0000000000000D+00  0.0000000000000D+00
   327  3.2600000000000D+00  0.0000000000000D+00  0.0000000000000D+00
   328  3.2700000000000D+00  0.0000000000000D+00  0.0000000000000D+00
   329  3.2800000000000D+00  0.0000000000000D+00  0.0000000000000D+00
   330  3.2900000000000D+00  0.0000000000000D+00  0.0000000000000D+00
   331  3.3000000000000D+00  0.0000000000000D+00  0.0000000000000D+00
   332  3.3100000000000D+00  0.0000000000000D+00  0.0000000000000D+00
   333  3.3200000000000D+00  0.0000000000000D+00  0.0000000000000D+00
   334  3.3300000000000D+00  0.0000000000000D+00  0.0000000000000D+00
   335  3.3400000000000D+00  0.0000000000000D+00  0.0000000000000D+00
   336  3.3500000000000D+00  0.0000000000000D+00  0.0000000000000D+00
   337  3.3600000000000D+00  0.0000000000000D+00  0.0000000000000D+00
   338  3.3700000000000D+00  0.0000000000000D+00  0.0000000000000D+00
   339  3.3800000000000D+00  0.0000000000000D+00  0.0000000000000D+00
   340  3.3900000000000D+00  0.0000000000000D+00  0.0000000000000D+00
   341  3.4000000000000D+00  0.0000000000000D+00  0.0000000000000D+00
   342  3.4100000000000D+00  0.0000000000000D+00  0.0000000000000D+00
   343  3.4200000000000D+00  0.0000000000000D+00  0.0000000000000D+00
   344  3.4300000000000D+00  0.0000000000000D+00  0.0000000000000D+00
   345  3.4400000000000D+00  0.0000000000000D+00  0.0000000000000D+00
   346  3.4500000000000D+00  0.0000000000000D+00  0.0000000000000D+00
   347  3.4600000000000D+00  0.0000000000000D+00  0.0000000000000D+00
   348  3.4700000000000D+00  0.0000000000000D+00  0.0000000000000D+00
   349  3.4800000000000D+00  0.0000000000000D+00  0.0000000000000D+00
   350  3.4900000000000D+00  0.0000000000000D+00  0.0000000000000D+00
   351  3.5000000000000D+00  0.0000000000000D+00  0.0000000000000D+00
   352  3.5100000000000D+00  0.0000000000000D+00  0.0000000000000D+00
   353  3.5200000000000D+00  0.0000000000000D+00  0.0000000000000D+00
   354  3.5300000000000D+00  0.0000000000000D+00  0.0000000000000D+00
   355  3.5400000000000D+00  0.0000000000000D+00  0.0000000000000D+00
   356  3.5500000000000D+00  0.0000000000000D+00  0.0000000000000D+00
   357  3.5600000000000D+00  0.0000000000000D+00  0.0000000000000D+00
   358  3.5700000000000D+00  0.0000000000000D+00  0.0000000000000D+00
   359  3.5800000000000D+00  0.0000000000000D+00  0.0000000000000D+00
   360  3.5900000000000D+00  0.0000000000000D+00  0.0000000000000D+00
   361  3.6000000000000D+00  0.0000000000000D+00  0.0000000000000D+00
   362  3.6100000000000D+00  0.0000000000000D+00  0.0000000000000D+00
   363  3.6200000000000D+00  0.0000000000000D+00  0.0000000000000D+00
   364  3.6300000000000D+00  0.0000000000000D+00  0.0000000000000D+00
   365  3.6400000000000D+00  0.0000000000000D+00  0.0000000000000D+00
   366  3.6500000000000D+00  0.0000000000000D+00  0.0000000000000D+00
   367  3.6600000000000D+00  0.0000000000000D+00  0.0000000000000D+00
   368  3.6700000000000D+00  0.0000000000000D+00  0.0000000000000D+00
   369  3.6800000000000D+00  0.0000000000000D+00  0.0000000000000D+00
   370  3.6900000000000D+00  0.0000000000000D+00  0.0000000000000D+00
   371  3.7000000000000D+00  0.0000000000000D+00  0.0000000000000D+00
   372  3.7100000000000D+00  0.0000000000000D+00  0.0000000000000D+00
   373  3.7200000000000D+00  0.0000000000000D+00  0.0000000000000D+00
   374  3.7300000000000D+00  0.0000000000000D+00  0.0000000000000D+00
   375  3.7400000000000D+00  0.0000000000000D+00  0.0000000000000D+00
   376  3.7500000000000D+00  0.0000000000000D+00  0.0000000000000D+00
   377  3.7600000000000D+00  0.0000000000000D+00  0.0000000000000D+00
   378  3.7700000000000D+00  0.0000000000000D+00  0.0000000000000D+00
   379  3.7800000000000D+00  0.0000000000000D+00  0.0000000000000D+00
   380  3.7900000000000D+00  0.0000000000000D+00  0.0000000000000D+00
   381  3.8000000000000D+00  0.0000000000000D+00  0.0000000000000D+00
   382  3.8100000000000D+00  0.0000000000000D+00  0.0000000000000D+00
   383  3.8200000000000D+00  0.0000000000000D+00  0.0000000000000D+00
   384  3.8300000000000D+00  0.0000000000000D+00  0.0000000000000D+00
   385  3.8400000000000D+00  0.0000000000000D+00  0.0000000000000D+00
   386  3.8500000000000D+00  0.0000000000000D+00  0.0000000000000D+00
   387  3.8600000000000D+00  0.0000000000000D+00  0.0000000000000D+00
   388  3.8700000000000D+00  0.0000000000000D+00  0.0000000000000D+00
   389  3.8800000000000D+00  0.0000000000000D+00  0.0000000000000D+00
   390  3.8900000000000D+00  0.0000000000000D+00  0.0000000000000D+00
   391  3.9000000000000D+00  0.0000000000000D+00  0.0000000000000D+00
   392  3.9100000000000D+00  0.0000000000000D+00  0.0000000000000D+00
   393  3.9200000000000D+00  0.0000000000000D+00  0.0000000000000D+00
   394  3.9300000000000D+00  0.0000000000000D+00  0.0000000000000D+00
   395  3.9400000000000D+00  0.0000000000000D+00  0.0000000000000D+00
   396  3.9500000000000D+00  0.0000000000000D+00  0.0000000000000D+00
   397  3.9600000000000D+00  0.0000000000000D+00  0.0000000000000D+00
   398  3.9700000000000D+00  0.0000000000000D+00  0.0000000000000D+00
   399  3.9800000000000D+00  0.0000000000000D+00  0.0000000000000D+00
   400  3.9900000000000D+00  0.0000000000000D+00  0.0000000000000D+00
   401  4.0000000000000D+00  0.0000000000000D+00  0.0000000000000D+00
   402  4.0100000000000D+00  0.0000000000000D+00  0.0000000000000D+00
   403  4.0200000000000D+00  0.0000000000000D+00  0.0000000000000D+00
   404  4.0300000000000D+00  0.0000000000000D+00  0.0000000000000D+00
   405  4.0400000000000D+00  0.0000000000000D+00  0.0000000000000D+00
   406  4.0500000000000D+00  0.0000000000000D+00  0.0000000000000D+00
   407  4.0600000000000D+00  0.0000000000000D+00  0.0000000000000D+00
   408  4.0700000000000D+00  0.0000000000000D+00  0.0000000000000D+00
   409  4.0800000000000D+00  0.0000000000000D+00  0.0000000000000D+00
   410  4.0900000000000D+00  0.0000000000000D+00  0.0000000000000D+00
   411  4.1000000000000D+00  0.0000000000000D+00  0.0000000000000D+00
   412  4.1100000000000D+00  0.0000000000000D+00  0.0000000000000D+00
   413  4.1200000000000D+00  0.0000000000000D+00  0.0000000000000D+00
   414  4.1300000000000D+00  0.0000000000000D+00  0.0000000000000D+00
   415  4.1400000000000D+00  0.0000000000000D+00  0.0000000000000D+00
   416  4.1500000000000D+00  0.0000000000000D+00  0.0000000000000D+00
   417  4.1600000000000D+00  0.0000000000000D+00  0.0000000000000D+00
   418  4.1700000000000D+00  0.0000000000000D+00  0.0000000000000D+00
   419  4.1800000000000D+00  0.0000000000000D+00  0.0000000000000D+00
   420  4.1900000000000D+00  0.0000000000000D+00  0.0000000000000D+00
   421  4.2000000000000D+00  0.0000000000000D+00  0.0000000000000D+00
   422  4.2100000000000D+00  0.0000000000000D+00  0.0000000000000D+00