In    ONCVPSP-3.3.0  r_core=   1.60261   1.60261   1.70110
     49.0000     21.0000      220117    zatom,zion,pspd
     8      11   2     4   600     0    pspcod,pspxc,lmax,lloc,mmax,r2well
  5.99000000  0.00000000  0.00000000    rchrg fchrg qchrg
     2     2     2     0     0    nproj
     1     1           extension_switch
   0                         8.4447922329292D+00 -5.5141029076219D-01
     1  0.0000000000000D+00  8.8748119964066D-11  5.6575664292291D-10
     2  1.0000000000000D-02  8.9342665928965D-02  7.0583785298715D-03
     3  2.0000000000000D-02  1.7843980243225D-01  1.4168931716112D-02
     4  3.0000000000000D-02  2.6704657945243D-01  2.1383063760674D-02
     5  4.0000000000000D-02  3.5491956507269D-01  2.8750649076468D-02
     6  5.0000000000000D-02  4.4181742307422D-01  3.6319295046468D-02
     7  6.0000000000000D-02  5.2750160861371D-01  4.4133637560627D-02
     8  7.0000000000000D-02  6.1173706128809D-01  5.2234679584191D-02
     9  8.0000000000000D-02  6.9429289476489D-01  6.0659182445273D-02
    10  9.0000000000000D-02  7.7494308204863D-01  6.9439118835343D-02
    11  1.0000000000000D-01  8.5346713532803D-01  7.8601195702049D-02
    12  1.1000000000000D-01  9.2965077920803D-01  8.8166454289569D-02
    13  1.2000000000000D-01  1.0032866159769D+00  9.8149953558592D-02
    14  1.3000000000000D-01  1.0741747813949D+00  1.0856054210875D-01
    15  1.4000000000000D-01  1.1421235893204D+00  1.1940072254423D-01
    16  1.5000000000000D-01  1.2069501633133D+00  1.3066661098332D-01
    17  1.6000000000000D-01  1.2684810531811D+00  1.4234799312961D-01
    18  1.7000000000000D-01  1.3265528342594D+00  1.5442847701275D-01
    19  1.8000000000000D-01  1.3810126870515D+00  1.6688574118623D-01
    20  1.9000000000000D-01  1.4317189546939D+00  1.7969187585489D-01
    21  2.0000000000000D-01  1.4785416755727D+00  1.9281381311305D-01
    22  2.1000000000000D-01  1.5213630882830D+00  2.0621384122021D-01
    23  2.2000000000000D-01  1.5600781060225D+00  2.1985019664333D-01
    24  2.3000000000000D-01  1.5945947574165D+00  2.3367772646558D-01
    25  2.4000000000000D-01  1.6248345907203D+00  2.4764861271853D-01
    26  2.5000000000000D-01  1.6507330383057D+00  2.6171314924946D-01
    27  2.6000000000000D-01  1.6722397383453D+00  2.7582056090229D-01
    28  2.7000000000000D-01  1.6893188106320D+00  2.8991985407956D-01
    29  2.8000000000000D-01  1.7019490835452D+00  3.0396068717519D-01
    30  2.9000000000000D-01  1.7101242692717D+00  3.1789424893106D-01
    31  3.0000000000000D-01  1.7138530845301D+00  3.3167413248194D-01
    32  3.1000000000000D-01  1.7131593142231D+00  3.4525719271818D-01
    33  3.2000000000000D-01  1.7080818156525D+00  3.5860437461737D-01
    34  3.3000000000000D-01  1.6986744611851D+00  3.7168150037549D-01
    35  3.4000000000000D-01  1.6850060175358D+00  3.8446000350590D-01
    36  3.5000000000000D-01  1.6671599601603D+00  3.9691759856700D-01
    37  3.6000000000000D-01  1.6452342215948D+00  4.0903887582356D-01
    38  3.7000000000000D-01  1.6193408729655D+00  4.2081581093550D-01
    39  3.8000000000000D-01  1.5896057382973D+00  4.3224818069413D-01
    40  3.9000000000000D-01  1.5561679416863D+00  4.4334387687917D-01
    41  4.0000000000000D-01  1.5191793878507D+00  4.5411911147949D-01
    42  4.1000000000000D-01  1.4788041770507D+00  4.6459850779329D-01
    43  4.2000000000000D-01  1.4352179558468D+00  4.7481507328523D-01
    44  4.3000000000000D-01  1.3886072056599D+00  4.8481005151304D-01
    45  4.4000000000000D-01  1.3391684715918D+00  4.9463265192860D-01
    46  4.5000000000000D-01  1.2871075344598D+00  5.0433965788952D-01
    47  4.6000000000000D-01  1.2326385294844D+00  5.1399491477066D-01
    48  4.7000000000000D-01  1.1759830155485D+00  5.2366870161984D-01
    49  4.8000000000000D-01  1.1173689994072D+00  5.3343699134150D-01
    50  4.9000000000000D-01  1.0570299196625D+00  5.4338060589596D-01
    51  5.0000000000000D-01  9.9520359573535D-01  5.5358427445135D-01
    52  5.1000000000000D-01  9.3213114744468D-01  5.6413560380297D-01
    53  5.2000000000000D-01  8.6805589115067D-01  5.7512397166187D-01
    54  5.3000000000000D-01  8.0322221872526D-01  5.8663935459472D-01
    55  5.4000000000000D-01  7.3787446587379D-01  5.9877110345311D-01
    56  5.5000000000000D-01  6.7225577654584D-01  6.1160668005122D-01
    57  5.6000000000000D-01  6.0660697033592D-01  6.2523036961818D-01
    58  5.7000000000000D-01  5.4116541988342D-01  6.3972198415838D-01
    59  5.8000000000000D-01  4.7616394533412D-01  6.5515557228721D-01
    60  5.9000000000000D-01  4.1182973292015D-01  6.7159815136401D-01
    61  6.0000000000000D-01  3.4838328465106D-01  6.8910847781260D-01
    62  6.1000000000000D-01  2.8603740598439D-01  7.0773587139963D-01
    63  6.2000000000000D-01  2.2499623816064D-01  7.2751910892969D-01
    64  6.3000000000000D-01  1.6545434164333D-01  7.4848540231337D-01
    65  6.4000000000000D-01  1.0759583680546D-01  7.7064947528013D-01
    66  6.5000000000000D-01  5.1593607644399D-02  7.9401275213417D-01
    67  6.6000000000000D-01 -2.3914261032847D-03  8.1856267090980D-01
    68  6.7000000000000D-01 -5.4210963536358D-02  8.4427213207883D-01
    69  6.8000000000000D-01 -1.0372989945358D-01  8.7109909259745D-01
    70  6.9000000000000D-01 -1.5082681966064D-01  8.9898631358537D-01
    71  7.0000000000000D-01 -1.9539441146212D-01  9.2786126831103D-01
    72  7.1000000000000D-01 -2.3733978670636D-01  9.5763621542995D-01
    73  7.2000000000000D-01 -2.7658471540448D-01  9.8820844060976D-01
    74  7.3000000000000D-01 -3.1306576861858D-01  1.0194606678008D+00
    75  7.4000000000000D-01 -3.4673437000677D-01  1.0512616394851D+00
    76  7.5000000000000D-01 -3.7755675611207D-01  1.0834668632936D+00
    77  7.6000000000000D-01 -4.0551384618769D-01  1.1159195204352D+00
    78  7.7000000000000D-01 -4.3060102305290D-01  1.1484515294526D+00
    79  7.8000000000000D-01 -4.5282782716365D-01  1.1808847569490D+00
    80  7.9000000000000D-01 -4.7221756675774D-01  1.2130323651147D+00
    81  8.0000000000000D-01 -4.8880684758580D-01  1.2447002841652D+00
    82  8.1000000000000D-01 -5.0264502636191D-01  1.2756887961941D+00
    83  8.2000000000000D-01 -5.1379359265469D-01  1.3057942154700D+00
    84  8.3000000000000D-01 -5.2232548448580D-01  1.3348106488790D+00
    85  8.4000000000000D-01 -5.2832434340215D-01  1.3625318190629D+00
    86  8.5000000000000D-01 -5.3188371523628D-01  1.3887529318302D+00
    87  8.6000000000000D-01 -5.3310620316174D-01  1.4132725686427D+00
    88  8.7000000000000D-01 -5.3210257998278D-01  1.4358945844198D+00
    89  8.8000000000000D-01 -5.2899086686734D-01  1.4564299905579D+00
    90  8.9000000000000D-01 -5.2389538593649D-01  1.4746988029414D+00
    91  9.0000000000000D-01 -5.1694579425988D-01  1.4905318348361D+00
    92  9.1000000000000D-01 -5.0827610687435D-01  1.5037724148960D+00
    93  9.2000000000000D-01 -4.9802371644149D-01  1.5142780110873D+00
    94  9.3000000000000D-01 -4.8632841708844D-01  1.5219217421329D+00
    95  9.4000000000000D-01 -4.7333143983747D-01  1.5265937590953D+00
    96  9.5000000000000D-01 -4.5917450682343D-01  1.5282024809468D+00
    97  9.6000000000000D-01 -4.4399891122779D-01  1.5266756693978D+00
    98  9.7000000000000D-01 -4.2794462952712D-01  1.5219613298596D+00
    99  9.8000000000000D-01 -4.1114947225797D-01  1.5140284272164D+00
   100  9.9000000000000D-01 -3.9374827906821D-01  1.5028674069568D+00
   101  1.0000000000000D+00 -3.7587216332237D-01  1.4884905143059D+00
   102  1.0100000000000D+00 -3.5764781099466D-01  1.4709319061441D+00
   103  1.0200000000000D+00 -3.3919683801220D-01  1.4502475527214D+00
   104  1.0300000000000D+00 -3.2063520960493D-01  1.4265149284666D+00
   105  1.0400000000000D+00 -3.0207272458245D-01  1.3998324935293D+00
   106  1.0500000000000D+00 -2.8361256681054D-01  1.3703189700010D+00
   107  1.0600000000000D+00 -2.6535092552155D-01  1.3381124189846D+00
   108  1.0700000000000D+00 -2.4737668538148D-01  1.3033691270796D+00
   109  1.0800000000000D+00 -2.2977118661430D-01  1.2662623128706D+00
   110  1.0900000000000D+00 -2.1260805480067D-01  1.2269806661654D+00
   111  1.1000000000000D+00 -1.9595309934903D-01  1.1857267345888D+00
   112  1.1100000000000D+00 -1.7986427903389D-01  1.1427151739049D+00
   113  1.1200000000000D+00 -1.6439173235582D-01  1.0981708801762D+00
   114  1.1300000000000D+00 -1.4957786997581D-01  1.0523270231428D+00
   115  1.1400000000000D+00 -1.3545752592336D-01  1.0054230014715D+00
   116  1.1500000000000D+00 -1.2205816388832D-01  9.5770234139357D-01
   117  1.1600000000000D+00 -1.0940013436468D-01  9.0941056118619D-01
   118  1.1700000000000D+00 -9.7496978138586D-02  8.6079302424511D-01
   119  1.1800000000000D+00 -8.6355771285948D-02  8.1209280373427D-01
   120  1.1900000000000D+00 -7.5977506591799D-02  7.6354858191118D-01
   121  1.2000000000000D+00 -6.6357506076122D-02  7.1539260681312D-01
   122  1.2100000000000D+00 -5.7485859240802D-02  6.6784872823018D-01
   123  1.2200000000000D+00 -4.9347881554391D-02  6.2113053461510D-01
   124  1.2300000000000D+00 -4.1924587658826D-02  5.7543961104657D-01
   125  1.2400000000000D+00 -3.5193173908171D-02  5.3096393696246D-01
   126  1.2500000000000D+00 -2.9127504895990D-02  4.8787644141151D-01
   127  1.2600000000000D+00 -2.3698598779227D-02  4.4633373164911D-01
   128  1.2700000000000D+00 -1.8875106557120D-02  4.0647500826471D-01
   129  1.2800000000000D+00 -1.4623780591436D-02  3.6842117904967D-01
   130  1.2900000000000D+00 -1.0909927944837D-02  3.3227418145914D-01
   131  1.3000000000000D+00 -7.6978447409437D-03  2.9811651969897D-01
   132  1.3100000000000D+00 -4.9512277836494D-03  2.6601102226358D-01
   133  1.3200000000000D+00 -2.6335602082064D-03  2.3600082231923D-01
   134  1.3300000000000D+00 -7.0846873115181D-04  2.0810955915628D-01
   135  1.3400000000000D+00  8.5995017259537D-04  1.8234180012700D-01
   136  1.3500000000000D+00  2.1068368009043D-03  1.5868367683011D-01
   137  1.3600000000000D+00  3.0663084888887D-03  1.3710372664672D-01
   138  1.3700000000000D+00  3.7712351683745D-03  1.1755393299682D-01
   139  1.3800000000000D+00  4.2530498661983D-03  9.9970948637762D-02
   140  1.3900000000000D+00  4.5415944300065D-03  8.4277489642749D-02
   141  1.4000000000000D+00  4.6650001409536D-03  7.0383884361526D-02
   142  1.4100000000000D+00  4.6496016956180D-03  5.8189757286999D-02
   143  1.4200000000000D+00  4.5198840120018D-03  4.7585831375574D-02
   144  1.4300000000000D+00  4.2984595717525D-03  3.8455825662228D-02
   145  1.4400000000000D+00  4.0060746098114D-03  3.0678427904877D-02
   146  1.4500000000000D+00  3.6616420114404D-03  2.4129319378789D-02
   147  1.4600000000000D+00  3.2822989788452D-03  1.8683232587580D-02
   148  1.4700000000000D+00  2.8834822724157D-03  1.4215997425855D-02
   149  1.4800000000000D+00  2.4790371337534D-03  1.0606633345161D-02
   150  1.4900000000000D+00  2.0812904323819D-03  7.7391890583793D-03
   151  1.5000000000000D+00  1.7011924011279D-03  5.5047406189620D-03
   152  1.5100000000000D+00  1.3486580292116D-03  3.8041274202059D-03
   153  1.5200000000000D+00  1.0321691333525D-03  2.5474092134843D-03
   154  1.5300000000000D+00  7.5830939412565D-04  1.6528930870592D-03
   155  1.5400000000000D+00  5.3127169800364D-04  1.0461089660375D-03
   156  1.5500000000000D+00  3.5242171222777D-04  6.5899605078360D-04
   157  1.5600000000000D+00  2.2045141001119D-04  4.3087586166568D-04
   158  1.5700000000000D+00  1.3097170288881D-04  3.0722216177919D-04
   159  1.5800000000000D+00  7.9020498203934D-05  2.5314946138448D-04
   160  1.5900000000000D+00  5.9242503941933D-05  2.5200023642584D-04
   161  1.6000000000000D+00  5.1525153441079D-05  2.4143828656873D-04
   162  1.6100000000000D+00  3.0478415410100D-05  1.4453333973677D-04
   163  1.6200000000000D+00  3.8814419080839D-06  1.8319267431917D-05
   164  1.6300000000000D+00 -4.9834500957605D-06 -2.4176938372041D-05
   165  1.6400000000000D+00 -8.1661236014793D-07 -3.9673960461198D-06
   166  1.6500000000000D+00  1.1027701754925D-06  5.3996846296717D-06
   167  1.6600000000000D+00  1.5582956086375D-07  7.6487258427164D-07
   168  1.6700000000000D+00 -1.3718177673222D-07 -6.4543007145916D-07
   169  1.6800000000000D+00 -1.8928826703174D-08 -8.9058723853069D-08
   170  1.6900000000000D+00  0.0000000000000D+00  0.0000000000000D+00
   171  1.7000000000000D+00  0.0000000000000D+00  0.0000000000000D+00
   172  1.7100000000000D+00  0.0000000000000D+00  0.0000000000000D+00
   173  1.7200000000000D+00  0.0000000000000D+00  0.0000000000000D+00
   174  1.7300000000000D+00  0.0000000000000D+00  0.0000000000000D+00
   175  1.7400000000000D+00  0.0000000000000D+00  0.0000000000000D+00
   176  1.7500000000000D+00  0.0000000000000D+00  0.0000000000000D+00
   177  1.7600000000000D+00  0.0000000000000D+00  0.0000000000000D+00
   178  1.7700000000000D+00  0.0000000000000D+00  0.0000000000000D+00
   179  1.7800000000000D+00  0.0000000000000D+00  0.0000000000000D+00
   180  1.7900000000000D+00  0.0000000000000D+00  0.0000000000000D+00
   181  1.8000000000000D+00  0.0000000000000D+00  0.0000000000000D+00
   182  1.8100000000000D+00  0.0000000000000D+00  0.0000000000000D+00
   183  1.8200000000000D+00  0.0000000000000D+00  0.0000000000000D+00
   184  1.8300000000000D+00  0.0000000000000D+00  0.0000000000000D+00
   185  1.8400000000000D+00  0.0000000000000D+00  0.0000000000000D+00
   186  1.8500000000000D+00  0.0000000000000D+00  0.0000000000000D+00
   187  1.8600000000000D+00  0.0000000000000D+00  0.0000000000000D+00
   188  1.8700000000000D+00  0.0000000000000D+00  0.0000000000000D+00
   189  1.8800000000000D+00  0.0000000000000D+00  0.0000000000000D+00
   190  1.8900000000000D+00  0.0000000000000D+00  0.0000000000000D+00
   191  1.9000000000000D+00  0.0000000000000D+00  0.0000000000000D+00
   192  1.9100000000000D+00  0.0000000000000D+00  0.0000000000000D+00
   193  1.9200000000000D+00  0.0000000000000D+00  0.0000000000000D+00
   194  1.9300000000000D+00  0.0000000000000D+00  0.0000000000000D+00
   195  1.9400000000000D+00  0.0000000000000D+00  0.0000000000000D+00
   196  1.9500000000000D+00  0.0000000000000D+00  0.0000000000000D+00
   197  1.9600000000000D+00  0.0000000000000D+00  0.0000000000000D+00
   198  1.9700000000000D+00  0.0000000000000D+00  0.0000000000000D+00
   199  1.9800000000000D+00  0.0000000000000D+00  0.0000000000000D+00
   200  1.9900000000000D+00  0.0000000000000D+00  0.0000000000000D+00
   201  2.0000000000000D+00  0.0000000000000D+00  0.0000000000000D+00
   202  2.0100000000000D+00  0.0000000000000D+00  0.0000000000000D+00
   203  2.0200000000000D+00  0.0000000000000D+00  0.0000000000000D+00
   204  2.0300000000000D+00  0.0000000000000D+00  0.0000000000000D+00
   205  2.0400000000000D+00  0.0000000000000D+00  0.0000000000000D+00
   206  2.0500000000000D+00  0.0000000000000D+00  0.0000000000000D+00
   207  2.0600000000000D+00  0.0000000000000D+00  0.0000000000000D+00
   208  2.0700000000000D+00  0.0000000000000D+00  0.0000000000000D+00
   209  2.0800000000000D+00  0.0000000000000D+00  0.0000000000000D+00
   210  2.0900000000000D+00  0.0000000000000D+00  0.0000000000000D+00
   211  2.1000000000000D+00  0.0000000000000D+00  0.0000000000000D+00
   212  2.1100000000000D+00  0.0000000000000D+00  0.0000000000000D+00
   213  2.1200000000000D+00  0.0000000000000D+00  0.0000000000000D+00
   214  2.1300000000000D+00  0.0000000000000D+00  0.0000000000000D+00
   215  2.1400000000000D+00  0.0000000000000D+00  0.0000000000000D+00
   216  2.1500000000000D+00  0.0000000000000D+00  0.0000000000000D+00
   217  2.1600000000000D+00  0.0000000000000D+00  0.0000000000000D+00
   218  2.1700000000000D+00  0.0000000000000D+00  0.0000000000000D+00
   219  2.1800000000000D+00  0.0000000000000D+00  0.0000000000000D+00
   220  2.1900000000000D+00  0.0000000000000D+00  0.0000000000000D+00
   221  2.2000000000000D+00  0.0000000000000D+00  0.0000000000000D+00
   222  2.2100000000000D+00  0.0000000000000D+00  0.0000000000000D+00
   223  2.2200000000000D+00  0.0000000000000D+00  0.0000000000000D+00
   224  2.2300000000000D+00  0.0000000000000D+00  0.0000000000000D+00
   225  2.2400000000000D+00  0.0000000000000D+00  0.0000000000000D+00
   226  2.2500000000000D+00  0.0000000000000D+00  0.0000000000000D+00
   227  2.2600000000000D+00  0.0000000000000D+00  0.0000000000000D+00
   228  2.2700000000000D+00  0.0000000000000D+00  0.0000000000000D+00
   229  2.2800000000000D+00  0.0000000000000D+00  0.0000000000000D+00
   230  2.2900000000000D+00  0.0000000000000D+00  0.0000000000000D+00
   231  2.3000000000000D+00  0.0000000000000D+00  0.0000000000000D+00
   232  2.3100000000000D+00  0.0000000000000D+00  0.0000000000000D+00
   233  2.3200000000000D+00  0.0000000000000D+00  0.0000000000000D+00
   234  2.3300000000000D+00  0.0000000000000D+00  0.0000000000000D+00
   235  2.3400000000000D+00  0.0000000000000D+00  0.0000000000000D+00
   236  2.3500000000000D+00  0.0000000000000D+00  0.0000000000000D+00
   237  2.3600000000000D+00  0.0000000000000D+00  0.0000000000000D+00
   238  2.3700000000000D+00  0.0000000000000D+00  0.0000000000000D+00
   239  2.3800000000000D+00  0.0000000000000D+00  0.0000000000000D+00
   240  2.3900000000000D+00  0.0000000000000D+00  0.0000000000000D+00
   241  2.4000000000000D+00  0.0000000000000D+00  0.0000000000000D+00
   242  2.4100000000000D+00  0.0000000000000D+00  0.0000000000000D+00
   243  2.4200000000000D+00  0.0000000000000D+00  0.0000000000000D+00
   244  2.4300000000000D+00  0.0000000000000D+00  0.0000000000000D+00
   245  2.4400000000000D+00  0.0000000000000D+00  0.0000000000000D+00
   246  2.4500000000000D+00  0.0000000000000D+00  0.0000000000000D+00
   247  2.4600000000000D+00  0.0000000000000D+00  0.0000000000000D+00
   248  2.4700000000000D+00  0.0000000000000D+00  0.0000000000000D+00
   249  2.4800000000000D+00  0.0000000000000D+00  0.0000000000000D+00
   250  2.4900000000000D+00  0.0000000000000D+00  0.0000000000000D+00
   251  2.5000000000000D+00  0.0000000000000D+00  0.0000000000000D+00
   252  2.5100000000000D+00  0.0000000000000D+00  0.0000000000000D+00
   253  2.5200000000000D+00  0.0000000000000D+00  0.0000000000000D+00
   254  2.5300000000000D+00  0.0000000000000D+00  0.0000000000000D+00
   255  2.5400000000000D+00  0.0000000000000D+00  0.0000000000000D+00
   256  2.5500000000000D+00  0.0000000000000D+00  0.0000000000000D+00
   257  2.5600000000000D+00  0.0000000000000D+00  0.0000000000000D+00
   258  2.5700000000000D+00  0.0000000000000D+00  0.0000000000000D+00
   259  2.5800000000000D+00  0.0000000000000D+00  0.0000000000000D+00
   260  2.5900000000000D+00  0.0000000000000D+00  0.0000000000000D+00
   261  2.6000000000000D+00  0.0000000000000D+00  0.0000000000000D+00
   262  2.6100000000000D+00  0.0000000000000D+00  0.0000000000000D+00
   263  2.6200000000000D+00  0.0000000000000D+00  0.0000000000000D+00
   264  2.6300000000000D+00  0.0000000000000D+00  0.0000000000000D+00
   265  2.6400000000000D+00  0.0000000000000D+00  0.0000000000000D+00
   266  2.6500000000000D+00  0.0000000000000D+00  0.0000000000000D+00
   267  2.6600000000000D+00  0.0000000000000D+00  0.0000000000000D+00
   268  2.6700000000000D+00  0.0000000000000D+00  0.0000000000000D+00
   269  2.6800000000000D+00  0.0000000000000D+00  0.0000000000000D+00
   270  2.6900000000000D+00  0.0000000000000D+00  0.0000000000000D+00
   271  2.7000000000000D+00  0.0000000000000D+00  0.0000000000000D+00
   272  2.7100000000000D+00  0.0000000000000D+00  0.0000000000000D+00
   273  2.7200000000000D+00  0.0000000000000D+00  0.0000000000000D+00
   274  2.7300000000000D+00  0.0000000000000D+00  0.0000000000000D+00
   275  2.7400000000000D+00  0.0000000000000D+00  0.0000000000000D+00
   276  2.7500000000000D+00  0.0000000000000D+00  0.0000000000000D+00
   277  2.7600000000000D+00  0.0000000000000D+00  0.0000000000000D+00
   278  2.7700000000000D+00  0.0000000000000D+00  0.0000000000000D+00
   279  2.7800000000000D+00  0.0000000000000D+00  0.0000000000000D+00
   280  2.7900000000000D+00  0.0000000000000D+00  0.0000000000000D+00
   281  2.8000000000000D+00  0.0000000000000D+00  0.0000000000000D+00
   282  2.8100000000000D+00  0.0000000000000D+00  0.0000000000000D+00
   283  2.8200000000000D+00  0.0000000000000D+00  0.0000000000000D+00
   284  2.8300000000000D+00  0.0000000000000D+00  0.0000000000000D+00
   285  2.8400000000000D+00  0.0000000000000D+00  0.0000000000000D+00
   286  2.8500000000000D+00  0.0000000000000D+00  0.0000000000000D+00
   287  2.8600000000000D+00  0.0000000000000D+00  0.0000000000000D+00
   288  2.8700000000000D+00  0.0000000000000D+00  0.0000000000000D+00
   289  2.8800000000000D+00  0.0000000000000D+00  0.0000000000000D+00
   290  2.8900000000000D+00  0.0000000000000D+00  0.0000000000000D+00
   291  2.9000000000000D+00  0.0000000000000D+00  0.0000000000000D+00
   292  2.9100000000000D+00  0.0000000000000D+00  0.0000000000000D+00
   293  2.9200000000000D+00  0.0000000000000D+00  0.0000000000000D+00
   294  2.9300000000000D+00  0.0000000000000D+00  0.0000000000000D+00
   295  2.9400000000000D+00  0.0000000000000D+00  0.0000000000000D+00
   296  2.9500000000000D+00  0.0000000000000D+00  0.0000000000000D+00
   297  2.9600000000000D+00  0.0000000000000D+00  0.0000000000000D+00
   298  2.9700000000000D+00  0.0000000000000D+00  0.0000000000000D+00
   299  2.9800000000000D+00  0.0000000000000D+00  0.0000000000000D+00
   300  2.9900000000000D+00  0.0000000000000D+00  0.0000000000000D+00
   301  3.0000000000000D+00  0.0000000000000D+00  0.0000000000000D+00
   302  3.0100000000000D+00  0.0000000000000D+00  0.0000000000000D+00
   303  3.0200000000000D+00  0.0000000000000D+00  0.0000000000000D+00
   304  3.0300000000000D+00  0.0000000000000D+00  0.0000000000000D+00
   305  3.0400000000000D+00  0.0000000000000D+00  0.0000000000000D+00
   306  3.0500000000000D+00  0.0000000000000D+00  0.0000000000000D+00
   307  3.0600000000000D+00  0.0000000000000D+00  0.0000000000000D+00
   308  3.0700000000000D+00  0.0000000000000D+00  0.0000000000000D+00
   309  3.0800000000000D+00  0.0000000000000D+00  0.0000000000000D+00
   310  3.0900000000000D+00  0.0000000000000D+00  0.0000000000000D+00
   311  3.1000000000000D+00  0.0000000000000D+00  0.0000000000000D+00
   312  3.1100000000000D+00  0.0000000000000D+00  0.0000000000000D+00
   313  3.1200000000000D+00  0.0000000000000D+00  0.0000000000000D+00
   314  3.1300000000000D+00  0.0000000000000D+00  0.0000000000000D+00
   315  3.1400000000000D+00  0.0000000000000D+00  0.0000000000000D+00
   316  3.1500000000000D+00  0.0000000000000D+00  0.0000000000000D+00
   317  3.1600000000000D+00  0.0000000000000D+00  0.0000000000000D+00
   318  3.1700000000000D+00  0.0000000000000D+00  0.0000000000000D+00
   319  3.1800000000000D+00  0.0000000000000D+00  0.0000000000000D+00
   320  3.1900000000000D+00  0.0000000000000D+00  0.0000000000000D+00
   321  3.2000000000000D+00  0.0000000000000D+00  0.0000000000000D+00
   322  3.2100000000000D+00  0.0000000000000D+00  0.0000000000000D+00
   323  3.2200000000000D+00  0.0000000000000D+00  0.0000000000000D+00
   324  3.2300000000000D+00  0.0000000000000D+00  0.0000000000000D+00
   325  3.2400000000000D+00  0.0000000000000D+00  0.0000000000000D+00
   326  3.2500000000000D+00  0.0000000000000D+00  0.0000000000000D+00
   327  3.2600000000000D+00  0.0000000000000D+00  0.0000000000000D+00
   328  3.2700000000000D+00  0.0000000000000D+00  0.0000000000000D+00
   329  3.2800000000000D+00  0.0000000000000D+00  0.0000000000000D+00
   330  3.2900000000000D+00  0.0000000000000D+00  0.0000000000000D+00
   331  3.3000000000000D+00  0.0000000000000D+00  0.0000000000000D+00
   332  3.3100000000000D+00  0.0000000000000D+00  0.0000000000000D+00
   333  3.3200000000000D+00  0.0000000000000D+00  0.0000000000000D+00
   334  3.3300000000000D+00  0.0000000000000D+00  0.0000000000000D+00
   335  3.3400000000000D+00  0.0000000000000D+00  0.0000000000000D+00
   336  3.3500000000000D+00  0.0000000000000D+00  0.0000000000000D+00
   337  3.3600000000000D+00  0.0000000000000D+00  0.0000000000000D+00
   338  3.3700000000000D+00  0.0000000000000D+00  0.0000000000000D+00
   339  3.3800000000000D+00  0.0000000000000D+00  0.0000000000000D+00
   340  3.3900000000000D+00  0.0000000000000D+00  0.0000000000000D+00
   341  3.4000000000000D+00  0.0000000000000D+00  0.0000000000000D+00
   342  3.4100000000000D+00  0.0000000000000D+00  0.0000000000000D+00
   343  3.4200000000000D+00  0.0000000000000D+00  0.0000000000000D+00
   344  3.4300000000000D+00  0.0000000000000D+00  0.0000000000000D+00
   345  3.4400000000000D+00  0.0000000000000D+00  0.0000000000000D+00
   346  3.4500000000000D+00  0.0000000000000D+00  0.0000000000000D+00
   347  3.4600000000000D+00  0.0000000000000D+00  0.0000000000000D+00
   348  3.4700000000000D+00  0.0000000000000D+00  0.0000000000000D+00
   349  3.4800000000000D+00  0.0000000000000D+00  0.0000000000000D+00
   350  3.4900000000000D+00  0.0000000000000D+00  0.0000000000000D+00
   351  3.5000000000000D+00  0.0000000000000D+00  0.0000000000000D+00
   352  3.5100000000000D+00  0.0000000000000D+00  0.0000000000000D+00
   353  3.5200000000000D+00  0.0000000000000D+00  0.0000000000000D+00
   354  3.5300000000000D+00  0.0000000000000D+00  0.0000000000000D+00
   355  3.5400000000000D+00  0.0000000000000D+00  0.0000000000000D+00
   356  3.5500000000000D+00  0.0000000000000D+00  0.0000000000000D+00
   357  3.5600000000000D+00  0.0000000000000D+00  0.0000000000000D+00
   358  3.5700000000000D+00  0.0000000000000D+00  0.0000000000000D+00
   359  3.5800000000000D+00  0.0000000000000D+00  0.0000000000000D+00
   360  3.5900000000000D+00  0.0000000000000D+00  0.0000000000000D+00
   361  3.6000000000000D+00  0.0000000000000D+00  0.0000000000000D+00
   362  3.6100000000000D+00  0.0000000000000D+00  0.0000000000000D+00
   363  3.6200000000000D+00  0.0000000000000D+00  0.0000000000000D+00
   364  3.6300000000000D+00  0.0000000000000D+00  0.0000000000000D+00
   365  3.6400000000000D+00  0.0000000000000D+00  0.0000000000000D+00
   366  3.6500000000000D+00  0.0000000000000D+00  0.0000000000000D+00
   367  3.6600000000000D+00  0.0000000000000D+00  0.0000000000000D+00
   368  3.6700000000000D+00  0.0000000000000D+00  0.0000000000000D+00
   369  3.6800000000000D+00  0.0000000000000D+00  0.0000000000000D+00
   370  3.6900000000000D+00  0.0000000000000D+00  0.0000000000000D+00
   371  3.7000000000000D+00  0.0000000000000D+00  0.0000000000000D+00
   372  3.7100000000000D+00  0.0000000000000D+00  0.0000000000000D+00
   373  3.7200000000000D+00  0.0000000000000D+00  0.0000000000000D+00
   374  3.7300000000000D+00  0.0000000000000D+00  0.0000000000000D+00
   375  3.7400000000000D+00  0.0000000000000D+00  0.0000000000000D+00
   376  3.7500000000000D+00  0.0000000000000D+00  0.0000000000000D+00
   377  3.7600000000000D+00  0.0000000000000D+00  0.0000000000000D+00
   378  3.7700000000000D+00  0.0000000000000D+00  0.0000000000000D+00
   379  3.7800000000000D+00  0.0000000000000D+00  0.0000000000000D+00
   380  3.7900000000000D+00  0.0000000000000D+00  0.0000000000000D+00
   381  3.8000000000000D+00  0.0000000000000D+00  0.0000000000000D+00
   382  3.8100000000000D+00  0.0000000000000D+00  0.0000000000000D+00
   383  3.8200000000000D+00  0.0000000000000D+00  0.0000000000000D+00
   384  3.8300000000000D+00  0.0000000000000D+00  0.0000000000000D+00
   385  3.8400000000000D+00  0.0000000000000D+00  0.0000000000000D+00
   386  3.8500000000000D+00  0.0000000000000D+00  0.0000000000000D+00
   387  3.8600000000000D+00  0.0000000000000D+00  0.0000000000000D+00
   388  3.8700000000000D+00  0.0000000000000D+00  0.0000000000000D+00
   389  3.8800000000000D+00  0.0000000000000D+00  0.0000000000000D+00
   390  3.8900000000000D+00  0.0000000000000D+00  0.0000000000000D+00
   391  3.9000000000000D+00  0.0000000000000D+00  0.0000000000000D+00
   392  3.9100000000000D+00  0.0000000000000D+00  0.0000000000000D+00
   393  3.9200000000000D+00  0.0000000000000D+00  0.0000000000000D+00
   394  3.9300000000000D+00  0.0000000000000D+00  0.0000000000000D+00
   395  3.9400000000000D+00  0.0000000000000D+00  0.0000000000000D+00
   396  3.9500000000000D+00  0.0000000000000D+00  0.0000000000000D+00
   397  3.9600000000000D+00  0.0000000000000D+00  0.0000000000000D+00
   398  3.9700000000000D+00  0.0000000000000D+00  0.0000000000000D+00
   399  3.9800000000000D+00  0.0000000000000D+00  0.0000000000000D+00
   400  3.9900000000000D+00  0.0000000000000D+00  0.0000000000000D+00
   401  4.0000000000000D+00  0.0000000000000D+00  0.0000000000000D+00
   402  4.0100000000000D+00  0.0000000000000D+00  0.0000000000000D+00
   403  4.0200000000000D+00  0.0000000000000D+00  0.0000000000000D+00
   404  4.0300000000000D+00  0.0000000000000D+00  0.0000000000000D+00
   405  4.0400000000000D+00  0.0000000000000D+00  0.0000000000000D+00
   406  4.0500000000000D+00  0.0000000000000D+00  0.0000000000000D+00
   407  4.0600000000000D+00  0.0000000000000D+00  0.0000000000000D+00
   408  4.0700000000000D+00  0.0000000000000D+00  0.0000000000000D+00
   409  4.0800000000000D+00  0.0000000000000D+00  0.0000000000000D+00
   410  4.0900000000000D+00  0.0000000000000D+00  0.0000000000000D+00
   411  4.1000000000000D+00  0.0000000000000D+00  0.0000000000000D+00
   412  4.1100000000000D+00  0.0000000000000D+00  0.0000000000000D+00
   413  4.1200000000000D+00  0.0000000000000D+00  0.0000000000000D+00
   414  4.1300000000000D+00  0.0000000000000D+00  0.0000000000000D+00
   415  4.1400000000000D+00  0.0000000000000D+00  0.0000000000000D+00
   416  4.1500000000000D+00  0.0000000000000D+00  0.0000000000000D+00
   417  4.1600000000000D+00  0.0000000000000D+00  0.0000000000000D+00
   418  4.1700000000000D+00  0.0000000000000D+00  0.0000000000000D+00
   419  4.1800000000000D+00  0.0000000000000D+00  0.0000000000000D+00
   420  4.1900000000000D+00  0.0000000000000D+00  0.0000000000000D+00
   421  4.2000000000000D+00  0.0000000000000D+00  0.0000000000000D+00
   422  4.2100000000000D+00  0.0000000000000D+00  0.0000000000000D+00