In    ONCVPSP-3.3.0  r_core=   2.10853   2.37566   3.12562
     49.0000      3.0000      220117    zatom,zion,pspd
     8      11   2     4   600     0    pspcod,pspxc,lmax,lloc,mmax,r2well
  5.99000000  0.00000000  0.00000000    rchrg fchrg qchrg
     2     2     2     0     0    nproj
     1     1           extension_switch
   0                         1.3125229872948D+01  1.9086455061433D+00
     1  0.0000000000000D+00 -1.9862239630797D-10  1.9911750026580D-10
     2  1.0000000000000D-02  5.9217464219873D-02 -4.0417351198552D-02
     3  2.0000000000000D-02  1.1815518429845D-01 -8.0562273199636D-02
     4  3.0000000000000D-02  1.7653503025484D-01 -1.2016391752746D-01
     5  4.0000000000000D-02  2.3408209124403D-01 -1.5895458807299D-01
     6  5.0000000000000D-02  2.9052626221298D-01 -1.9667129463636D-01
     7  6.0000000000000D-02  3.4560380320292D-01 -2.3305727944091D-01
     8  7.0000000000000D-02  3.9905886241361D-01 -2.6786350784376D-01
     9  8.0000000000000D-02  4.5064495434376D-01 -3.0085011466655D-01
    10  9.0000000000000D-02  5.0012638456829D-01 -3.3178779781730D-01
    11  1.0000000000000D-01  5.4727961300619D-01 -3.6045915116765D-01
    12  1.1000000000000D-01  5.9189454787040D-01 -3.8665992898871D-01
    13  1.2000000000000D-01  6.3377576287289D-01 -4.1020023463033D-01
    14  1.3000000000000D-01  6.7274363068038D-01 -4.3090562655216D-01
    15  1.4000000000000D-01  7.0863536607838D-01 -4.4861813527736D-01
    16  1.5000000000000D-01  7.4130597279975D-01 -4.6319718533879D-01
    17  1.6000000000000D-01  7.7062908850723D-01 -4.7452041682100D-01
    18  1.7000000000000D-01  7.9649772298380D-01 -4.8248440166584D-01
    19  1.8000000000000D-01  8.1882488517801D-01 -4.8700525050267D-01
    20  1.9000000000000D-01  8.3754409537009D-01 -4.8801910638207D-01
    21  2.0000000000000D-01  8.5260977936569D-01 -4.8548252243217D-01
    22  2.1000000000000D-01  8.6399754228374D-01 -4.7937272111546D-01
    23  2.2000000000000D-01  8.7170432018066D-01 -4.6968773343721D-01
    24  2.3000000000000D-01  8.7574840843975D-01 -4.5644641714151D-01
    25  2.4000000000000D-01  8.7616936655022D-01 -4.3968835362378D-01
    26  2.5000000000000D-01  8.7302779959979D-01 -4.1947362398408D-01
    27  2.6000000000000D-01  8.6640501750511D-01 -3.9588246534259D-01
    28  2.7000000000000D-01  8.5640257370121D-01 -3.6901480923007D-01
    29  2.8000000000000D-01  8.4314168570115D-01 -3.3898970455130D-01
    30  2.9000000000000D-01  8.2676254061611D-01 -3.0594462829177D-01
    31  3.0000000000000D-01  8.0742348939043D-01 -2.7003468779554D-01
    32  3.1000000000000D-01  7.8530013415209D-01 -2.3143171908017D-01
    33  3.2000000000000D-01  7.6058431370254D-01 -1.9032328626962D-01
    34  3.3000000000000D-01  7.3348299276816D-01 -1.4691158781473D-01
    35  3.4000000000000D-01  7.0421706120386D-01 -1.0141227572914D-01
    36  3.5000000000000D-01  6.7302004987573D-01 -5.4053194593575D-02
    37  3.6000000000000D-01  6.4013677044970D-01 -5.0730475698067D-03
    38  3.7000000000000D-01  6.0582188677447D-01  4.5280002885813D-02
    39  3.8000000000000D-01  5.7033842596676D-01  9.6749791513101D-02
    40  3.9000000000000D-01  5.3395623768180D-01  1.4907365548594D-01
    41  4.0000000000000D-01  4.9695041038053D-01  2.0198397962679D-01
    42  4.1000000000000D-01  4.5959965368419D-01  2.5520977256322D-01
    43  4.2000000000000D-01  4.2218465613515D-01  3.0847826457994D-01
    44  4.3000000000000D-01  3.8498642785871D-01  3.6151651776036D-01
    45  4.4000000000000D-01  3.4828463774192D-01  4.1405303890743D-01
    46  4.5000000000000D-01  3.1235595481216D-01  4.6581938568399D-01
    47  4.6000000000000D-01  2.7747240350856D-01  5.1655175642043D-01
    48  4.7000000000000D-01  2.4389974249355D-01  5.6599255410052D-01
    49  4.8000000000000D-01  2.1189587654948D-01  6.1389191515699D-01
    50  4.9000000000000D-01  1.8170931094638D-01  6.6000919388471D-01
    51  5.0000000000000D-01  1.5357765745215D-01  7.0411439351192D-01
    52  5.1000000000000D-01  1.2772620088721D-01  7.4598953525649D-01
    53  5.2000000000000D-01  1.0436653480164D-01  7.8542995703539D-01
    54  5.3000000000000D-01  8.3695274477355D-02  8.2224553388731D-01
    55  5.4000000000000D-01  6.5892855031397D-02  8.5626181261077D-01
    56  5.5000000000000D-01  5.1122421921723D-02  8.8732105360997D-01
    57  5.6000000000000D-01  3.9528820636303D-02  9.1528317347514D-01
    58  5.7000000000000D-01  3.1237691782988D-02  9.4002658240108D-01
    59  5.8000000000000D-01  2.6354677193197D-02  9.6144891116370D-01
    60  5.9000000000000D-01  2.4964742013191D-02  9.7946762302462D-01
    61  6.0000000000000D-01  2.7131617081899D-02  9.9402050661804D-01
    62  6.1000000000000D-01  3.2897365192574D-02  1.0050660465838D+00
    63  6.2000000000000D-01  4.2282074107345D-02  1.0125836694447D+00
    64  6.3000000000000D-01  5.5283678443253D-02  1.0165738629819D+00
    65  6.4000000000000D-01  7.1877911786228D-02  1.0170581681254D+00
    66  6.5000000000000D-01  9.2018389608004D-02  1.0140790431625D+00
    67  6.6000000000000D-01  1.1563682277814D-01  1.0076996008425D+00
    68  6.7000000000000D-01  1.4264336067747D-01  9.9800321974691D-01
    69  6.8000000000000D-01  1.7292706213086D-01  9.8509303206856D-01
    70  6.9000000000000D-01  2.0635649160176D-01  9.6909129071816D-01
    71  7.0000000000000D-01  2.4278043732525D-01  9.5013861942810D-01
    72  7.1000000000000D-01  2.8202874730706D-01  9.2839315026265D-01
    73  7.2000000000000D-01  3.2391327838865D-01  9.0402955365600D-01
    74  7.3000000000000D-01  3.6822895287860D-01  8.7723796678285D-01
    75  7.4000000000000D-01  4.1475491658045D-01  8.4822282671742D-01
    76  7.5000000000000D-01  4.6325579141351D-01  8.1720161544947D-01
    77  7.6000000000000D-01  5.1348301522836D-01  7.8440352439697D-01
    78  7.7000000000000D-01  5.6517626086719D-01  7.5006804658146D-01
    79  7.8000000000000D-01  6.1806492601660D-01  7.1444350510708D-01
    80  7.9000000000000D-01  6.7186968494727D-01  6.7778552700775D-01
    81  8.0000000000000D-01  7.2630409283655D-01  6.4035547189425D-01
    82  8.1000000000000D-01  7.8107623302825D-01  6.0241882514149D-01
    83  8.2000000000000D-01  8.3589039730167D-01  5.6424356560364D-01
    84  8.3000000000000D-01  8.9044878900151D-01  5.2609851802927D-01
    85  8.4000000000000D-01  9.4445323872253D-01  4.8825170046868D-01
    86  8.5000000000000D-01  9.9760692215065D-01  4.5096867701929D-01
    87  8.6000000000000D-01  1.0496160696349D+00  4.1451092624282D-01
    88  8.7000000000000D-01  1.1001916571034D+00  3.7913423550838D-01
    89  8.8000000000000D-01  1.1490510680434D+00  3.4508713136961D-01
    90  8.9000000000000D-01  1.1959197164326D+00  3.1260935587193D-01
    91  9.0000000000000D-01  1.2405326207513D+00  2.8193039840852D-01
    92  9.1000000000000D-01  1.2826359194978D+00  2.5326809240305D-01
    93  9.2000000000000D-01  1.3219883189966D+00  2.2682728569434D-01
    94  9.3000000000000D-01  1.3583624647085D+00  2.0279859303678D-01
    95  9.4000000000000D-01  1.3915462277306D+00  1.8135723861166D-01
    96  9.5000000000000D-01  1.4213438987096D+00  1.6266199587302D-01
    97  9.6000000000000D-01  1.4475772819752D+00  1.4685423143042D-01
    98  9.7000000000000D-01  1.4700866833309D+00  1.3405705900520D-01
    99  9.8000000000000D-01  1.4887317856262D+00  1.2437460877939D-01
   100  9.9000000000000D-01  1.5033924069276D+00  1.1789141672879D-01
   101  1.0000000000000D+00  1.5139691368758D+00  1.1467193773731D-01
   102  1.0100000000000D+00  1.5203838475860D+00  1.1476018548942D-01
   103  1.0200000000000D+00  1.5225800762522D+00  1.1817950131527D-01
   104  1.0300000000000D+00  1.5205232774367D+00  1.2493245331915D-01
   105  1.0400000000000D+00  1.5142009438695D+00  1.3500086626254D-01
   106  1.0500000000000D+00  1.5036225954241D+00  1.4834598181881D-01
   107  1.0600000000000D+00  1.4888196367539D+00  1.6490874798777D-01
   108  1.0700000000000D+00  1.4698450849714D+00  1.8461023555227D-01
   109  1.0800000000000D+00  1.4467731695381D+00  2.0735217867549D-01
   110  1.0900000000000D+00  1.4196988073824D+00  2.3301763588369D-01
   111  1.1000000000000D+00  1.3887369570413D+00  2.6147176691027D-01
   112  1.1100000000000D+00  1.3540218563763D+00  2.9256272013027D-01
   113  1.1200000000000D+00  1.3157061492179D+00  3.2612262452162D-01
   114  1.1300000000000D+00  1.2739599069389D+00  3.6196867946578D-01
   115  1.1400000000000D+00  1.2289695516688D+00  3.9990433500598D-01
   116  1.1500000000000D+00  1.1809366883758D+00  4.3972055469251D-01
   117  1.1600000000000D+00  1.1300768537691D+00  4.8119715244880D-01
   118  1.1700000000000D+00  1.0766181903780D+00  5.2410419452429D-01
   119  1.1800000000000D+00  1.0208000546383D+00  5.6820345715906D-01
   120  1.1900000000000D+00  9.6287156820260D-01  6.1324993023697D-01
   121  1.2000000000000D+00  9.0309012208945D-01  6.5899335685742D-01
   122  1.2100000000000D+00  8.4171984348502D-01  7.0517979860783D-01
   123  1.2200000000000D+00  7.7903003519369D-01  7.5155321616297D-01
   124  1.2300000000000D+00  7.1529359796075D-01  7.9785705469136D-01
   125  1.2400000000000D+00  6.5078544584572D-01  8.4383582364349D-01
   126  1.2500000000000D+00  5.8578092485652D-01  8.8923666050546D-01
   127  1.2600000000000D+00  5.2055424503102D-01  9.3381086819754D-01
   128  1.2700000000000D+00  4.5537693586732D-01  9.7731541616080D-01
   129  1.2800000000000D+00  3.9051633489480D-01  1.0195143953149D+00
   130  1.2900000000000D+00  3.2623411897038D-01  1.0601804173504D+00
   131  1.3000000000000D+00  2.6278488722249D-01  1.0990959495821D+00
   132  1.3100000000000D+00  2.0041480451816D-01  1.1360545766448D+00
   133  1.3200000000000D+00  1.3936031380751D-01  1.1708621809236D+00
   134  1.3300000000000D+00  7.9846924670246D-02  1.2033380347490D+00
   135  1.3400000000000D+00  2.2088085710991D-02  1.2333157970315D+00
   136  1.3500000000000D+00 -3.3715852814743D-02  1.2606444084222D+00
   137  1.3600000000000D+00 -8.7378580815474D-02  1.2851888802030D+00
   138  1.3700000000000D+00 -1.3872866831987D-01  1.3068309710828D+00
   139  1.3800000000000D+00 -1.8761030027333D-01  1.3254697493049D+00
   140  1.3900000000000D+00 -2.3388390204490D-01  1.3410220365600D+00
   141  1.4000000000000D+00 -2.7742665224114D-01  1.3534227310058D+00
   142  1.4100000000000D+00 -3.1813288207145D-01  1.3626250094738D+00
   143  1.4200000000000D+00 -3.5591435831690D-01  1.3686004066410D+00
   144  1.4300000000000D+00 -3.9070045072474D-01  1.3713387729150D+00
   145  1.4400000000000D+00 -4.2243818383569D-01  1.3708481118948D+00
   146  1.4500000000000D+00 -4.5109217349839D-01  1.3671542985712D+00
   147  1.4600000000000D+00 -4.7664445193487D-01  1.3603006831221D+00
   148  1.4700000000000D+00 -4.9909418151399D-01  1.3503475813695D+00
   149  1.4800000000000D+00 -5.1845726306173D-01  1.3373716587687D+00
   150  1.4900000000000D+00 -5.3476584121842D-01  1.3214652113943D+00
   151  1.5000000000000D+00 -5.4806771220874D-01  1.3027353503265D+00
   152  1.5100000000000D+00 -5.5842563999580D-01  1.2813030963752D+00
   153  1.5200000000000D+00 -5.6591658537427D-01  1.2573023907546D+00
   154  1.5300000000000D+00 -5.7063085678345D-01  1.2308790313909D+00
   155  1.5400000000000D+00 -5.7267118731541D-01  1.2021895404320D+00
   156  1.5500000000000D+00 -5.7215174790297D-01  1.1713999737613D+00
   157  1.5600000000000D+00 -5.6919710250132D-01  1.1386846793884D+00
   158  1.5700000000000D+00 -5.6394111490549D-01  1.1042250151493D+00
   159  1.5800000000000D+00 -5.5652581461698D-01  1.0682080340520D+00
   160  1.5900000000000D+00 -5.4710023101923D-01  1.0308251473398D+00
   161  1.6000000000000D+00 -5.3581920404484D-01  9.9227077416356D-01
   162  1.6100000000000D+00 -5.2284218063363D-01  9.5274098803127D-01
   163  1.6200000000000D+00 -5.0833200494360D-01  9.1243216842422D-01
   164  1.6300000000000D+00 -4.9245371211715D-01  8.7153966833281D-01
   165  1.6400000000000D+00 -4.7537333237668D-01  8.3025650458806D-01
   166  1.6500000000000D+00 -4.5725671571414D-01  7.8877208082373D-01
   167  1.6600000000000D+00 -4.3826838488984D-01  7.4727096050075D-01
   168  1.6700000000000D+00 -4.1857041656594D-01  7.0593165271523D-01
   169  1.6800000000000D+00 -3.9832138989285D-01  6.6492555960603D-01
   170  1.6900000000000D+00 -3.7767534686959D-01  6.2441584436887D-01
   171  1.7000000000000D+00 -3.5678079424392D-01  5.8455627498140D-01
   172  1.7100000000000D+00 -3.3577989904630D-01  5.4549074244775D-01
   173  1.7200000000000D+00 -3.1480772504986D-01  5.0735277224960D-01
   174  1.7300000000000D+00 -2.9399159606488D-01  4.7026515441459D-01
   175  1.7400000000000D+00 -2.7345057492489D-01  4.3433985202600D-01
   176  1.7500000000000D+00 -2.5329491753591D-01  3.9967747853947D-01
   177  1.7600000000000D+00 -2.3362560728943D-01  3.6636682837657D-01
   178  1.7700000000000D+00 -2.1453400723905D-01  3.3448466446303D-01
   179  1.7800000000000D+00 -1.9610158548869D-01  3.0409554493094D-01
   180  1.7900000000000D+00 -1.7839973332736D-01  2.7525175347584D-01
   181  1.8000000000000D+00 -1.6148966931248D-01  2.4799333029544D-01
   182  1.8100000000000D+00 -1.4542243145146D-01  2.2234819768717D-01
   183  1.8200000000000D+00 -1.3023895412728D-01  1.9833237990520D-01
   184  1.8300000000000D+00 -1.1597022717803D-01  1.7595031315289D-01
   185  1.8400000000000D+00 -1.0263753704797D-01  1.5519524508518D-01
   186  1.8500000000000D+00 -9.0252780588757D-02  1.3604971323068D-01
   187  1.8600000000000D+00 -7.8818856109492D-02  1.1848610663024D-01
   188  1.8700000000000D+00 -6.8330115731421D-02  1.0246729327515D-01
   189  1.8800000000000D+00 -5.8772886774486D-02  8.7947320836781D-02
   190  1.8900000000000D+00 -5.0126043709679D-02  7.4872170750528D-02
   191  1.9000000000000D+00 -4.2361635780149D-02  6.3180570252479D-02
   192  1.9100000000000D+00 -3.5445555887837D-02  5.2804846818964D-02
   193  1.9200000000000D+00 -2.9338248657336D-02  4.3671822030677D-02
   194  1.9300000000000D+00 -2.3995449462094D-02  3.5703735759072D-02
   195  1.9400000000000D+00 -1.9368946426547D-02  2.8819191720019D-02
   196  1.9500000000000D+00 -1.5407360007374D-02  2.2934117938446D-02
   197  1.9600000000000D+00 -1.2056931804843D-02  1.7962733288983D-02
   198  1.9700000000000D+00 -9.2623144584252D-03  1.3818510290457D-02
   199  1.9800000000000D+00 -6.9673585685100D-03  1.0415130224765D-02
   200  1.9900000000000D+00 -5.1158848354107D-03  7.6674169126931D-03
   201  2.0000000000000D+00 -3.6524386519054D-03  5.4922462797704D-03
   202  2.0100000000000D+00 -2.5230193380380D-03  3.8094229736239D-03
   203  2.0200000000000D+00 -1.6757725023740D-03  2.5425110570402D-03
   204  2.0300000000000D+00 -1.0616523475728D-03  1.6196265887496D-03
   205  2.0400000000000D+00 -6.3505713984333D-04  9.7418974205534D-04
   206  2.0500000000000D+00 -3.5429605639132D-04  5.4550994248616D-04
   207  2.0600000000000D+00 -1.8214637111035D-04  2.7944627968541D-04
   208  2.0700000000000D+00 -8.6403794074962D-05  1.2905496971322D-04
   209  2.0800000000000D+00 -4.0382288963392D-05  5.4953414791314D-05
   210  2.0900000000000D+00 -2.3092053824447D-05  2.5863143033134D-05
   211  2.1000000000000D+00 -1.8569096065904D-05  1.8144095247550D-05
   212  2.1100000000000D+00 -1.6024222167402D-05  1.5771560356968D-05
   213  2.1200000000000D+00 -9.8277066778645D-06  1.0002472053612D-05
   214  2.1300000000000D+00 -2.4480788986167D-06  2.5743062693906D-06
   215  2.1400000000000D+00  1.5446565498311D-06 -1.5495901967694D-06
   216  2.1500000000000D+00  1.5595425994501D-06 -1.5814793018228D-06
   217  2.1600000000000D+00 -3.1552560948156D-08  2.8710152370178D-08
   218  2.1700000000000D+00 -3.5230512125331D-07  3.1881256121662D-07
   219  2.1800000000000D+00 -1.9530813916960D-07  1.7595081222458D-07
   220  2.1900000000000D+00  2.7920607760805D-08 -2.7384363522771D-08
   221  2.2000000000000D+00  4.5706784250568D-08 -4.4828938040937D-08
   222  2.2100000000000D+00  8.3578583154908D-09 -8.1973369757558D-09
   223  2.2200000000000D+00  0.0000000000000D+00  0.0000000000000D+00
   224  2.2300000000000D+00  0.0000000000000D+00  0.0000000000000D+00
   225  2.2400000000000D+00  0.0000000000000D+00  0.0000000000000D+00
   226  2.2500000000000D+00  0.0000000000000D+00  0.0000000000000D+00
   227  2.2600000000000D+00  0.0000000000000D+00  0.0000000000000D+00
   228  2.2700000000000D+00  0.0000000000000D+00  0.0000000000000D+00
   229  2.2800000000000D+00  0.0000000000000D+00  0.0000000000000D+00
   230  2.2900000000000D+00  0.0000000000000D+00  0.0000000000000D+00
   231  2.3000000000000D+00  0.0000000000000D+00  0.0000000000000D+00
   232  2.3100000000000D+00  0.0000000000000D+00  0.0000000000000D+00
   233  2.3200000000000D+00  0.0000000000000D+00  0.0000000000000D+00
   234  2.3300000000000D+00  0.0000000000000D+00  0.0000000000000D+00
   235  2.3400000000000D+00  0.0000000000000D+00  0.0000000000000D+00
   236  2.3500000000000D+00  0.0000000000000D+00  0.0000000000000D+00
   237  2.3600000000000D+00  0.0000000000000D+00  0.0000000000000D+00
   238  2.3700000000000D+00  0.0000000000000D+00  0.0000000000000D+00
   239  2.3800000000000D+00  0.0000000000000D+00  0.0000000000000D+00
   240  2.3900000000000D+00  0.0000000000000D+00  0.0000000000000D+00
   241  2.4000000000000D+00  0.0000000000000D+00  0.0000000000000D+00
   242  2.4100000000000D+00  0.0000000000000D+00  0.0000000000000D+00
   243  2.4200000000000D+00  0.0000000000000D+00  0.0000000000000D+00
   244  2.4300000000000D+00  0.0000000000000D+00  0.0000000000000D+00
   245  2.4400000000000D+00  0.0000000000000D+00  0.0000000000000D+00
   246  2.4500000000000D+00  0.0000000000000D+00  0.0000000000000D+00
   247  2.4600000000000D+00  0.0000000000000D+00  0.0000000000000D+00
   248  2.4700000000000D+00  0.0000000000000D+00  0.0000000000000D+00
   249  2.4800000000000D+00  0.0000000000000D+00  0.0000000000000D+00
   250  2.4900000000000D+00  0.0000000000000D+00  0.0000000000000D+00
   251  2.5000000000000D+00  0.0000000000000D+00  0.0000000000000D+00
   252  2.5100000000000D+00  0.0000000000000D+00  0.0000000000000D+00
   253  2.5200000000000D+00  0.0000000000000D+00  0.0000000000000D+00
   254  2.5300000000000D+00  0.0000000000000D+00  0.0000000000000D+00
   255  2.5400000000000D+00  0.0000000000000D+00  0.0000000000000D+00
   256  2.5500000000000D+00  0.0000000000000D+00  0.0000000000000D+00
   257  2.5600000000000D+00  0.0000000000000D+00  0.0000000000000D+00
   258  2.5700000000000D+00  0.0000000000000D+00  0.0000000000000D+00
   259  2.5800000000000D+00  0.0000000000000D+00  0.0000000000000D+00
   260  2.5900000000000D+00  0.0000000000000D+00  0.0000000000000D+00
   261  2.6000000000000D+00  0.0000000000000D+00  0.0000000000000D+00
   262  2.6100000000000D+00  0.0000000000000D+00  0.0000000000000D+00
   263  2.6200000000000D+00  0.0000000000000D+00  0.0000000000000D+00
   264  2.6300000000000D+00  0.0000000000000D+00  0.0000000000000D+00
   265  2.6400000000000D+00  0.0000000000000D+00  0.0000000000000D+00
   266  2.6500000000000D+00  0.0000000000000D+00  0.0000000000000D+00
   267  2.6600000000000D+00  0.0000000000000D+00  0.0000000000000D+00
   268  2.6700000000000D+00  0.0000000000000D+00  0.0000000000000D+00
   269  2.6800000000000D+00  0.0000000000000D+00  0.0000000000000D+00
   270  2.6900000000000D+00  0.0000000000000D+00  0.0000000000000D+00
   271  2.7000000000000D+00  0.0000000000000D+00  0.0000000000000D+00
   272  2.7100000000000D+00  0.0000000000000D+00  0.0000000000000D+00
   273  2.7200000000000D+00  0.0000000000000D+00  0.0000000000000D+00
   274  2.7300000000000D+00  0.0000000000000D+00  0.0000000000000D+00
   275  2.7400000000000D+00  0.0000000000000D+00  0.0000000000000D+00
   276  2.7500000000000D+00  0.0000000000000D+00  0.0000000000000D+00
   277  2.7600000000000D+00  0.0000000000000D+00  0.0000000000000D+00
   278  2.7700000000000D+00  0.0000000000000D+00  0.0000000000000D+00
   279  2.7800000000000D+00  0.0000000000000D+00  0.0000000000000D+00
   280  2.7900000000000D+00  0.0000000000000D+00  0.0000000000000D+00
   281  2.8000000000000D+00  0.0000000000000D+00  0.0000000000000D+00
   282  2.8100000000000D+00  0.0000000000000D+00  0.0000000000000D+00
   283  2.8200000000000D+00  0.0000000000000D+00  0.0000000000000D+00
   284  2.8300000000000D+00  0.0000000000000D+00  0.0000000000000D+00
   285  2.8400000000000D+00  0.0000000000000D+00  0.0000000000000D+00
   286  2.8500000000000D+00  0.0000000000000D+00  0.0000000000000D+00
   287  2.8600000000000D+00  0.0000000000000D+00  0.0000000000000D+00
   288  2.8700000000000D+00  0.0000000000000D+00  0.0000000000000D+00
   289  2.8800000000000D+00  0.0000000000000D+00  0.0000000000000D+00
   290  2.8900000000000D+00  0.0000000000000D+00  0.0000000000000D+00
   291  2.9000000000000D+00  0.0000000000000D+00  0.0000000000000D+00
   292  2.9100000000000D+00  0.0000000000000D+00  0.0000000000000D+00
   293  2.9200000000000D+00  0.0000000000000D+00  0.0000000000000D+00
   294  2.9300000000000D+00  0.0000000000000D+00  0.0000000000000D+00
   295  2.9400000000000D+00  0.0000000000000D+00  0.0000000000000D+00
   296  2.9500000000000D+00  0.0000000000000D+00  0.0000000000000D+00
   297  2.9600000000000D+00  0.0000000000000D+00  0.0000000000000D+00
   298  2.9700000000000D+00  0.0000000000000D+00  0.0000000000000D+00
   299  2.9800000000000D+00  0.0000000000000D+00  0.0000000000000D+00
   300  2.9900000000000D+00  0.0000000000000D+00  0.0000000000000D+00
   301  3.0000000000000D+00  0.0000000000000D+00  0.0000000000000D+00
   302  3.0100000000000D+00  0.0000000000000D+00  0.0000000000000D+00
   303  3.0200000000000D+00  0.0000000000000D+00  0.0000000000000D+00
   304  3.0300000000000D+00  0.0000000000000D+00  0.0000000000000D+00
   305  3.0400000000000D+00  0.0000000000000D+00  0.0000000000000D+00
   306  3.0500000000000D+00  0.0000000000000D+00  0.0000000000000D+00
   307  3.0600000000000D+00  0.0000000000000D+00  0.0000000000000D+00
   308  3.0700000000000D+00  0.0000000000000D+00  0.0000000000000D+00
   309  3.0800000000000D+00  0.0000000000000D+00  0.0000000000000D+00
   310  3.0900000000000D+00  0.0000000000000D+00  0.0000000000000D+00
   311  3.1000000000000D+00  0.0000000000000D+00  0.0000000000000D+00
   312  3.1100000000000D+00  0.0000000000000D+00  0.0000000000000D+00
   313  3.1200000000000D+00  0.0000000000000D+00  0.0000000000000D+00
   314  3.1300000000000D+00  0.0000000000000D+00  0.0000000000000D+00
   315  3.1400000000000D+00  0.0000000000000D+00  0.0000000000000D+00
   316  3.1500000000000D+00  0.0000000000000D+00  0.0000000000000D+00
   317  3.1600000000000D+00  0.0000000000000D+00  0.0000000000000D+00
   318  3.1700000000000D+00  0.0000000000000D+00  0.0000000000000D+00
   319  3.1800000000000D+00  0.0000000000000D+00  0.0000000000000D+00
   320  3.1900000000000D+00  0.0000000000000D+00  0.0000000000000D+00
   321  3.2000000000000D+00  0.0000000000000D+00  0.0000000000000D+00
   322  3.2100000000000D+00  0.0000000000000D+00  0.0000000000000D+00
   323  3.2200000000000D+00  0.0000000000000D+00  0.0000000000000D+00
   324  3.2300000000000D+00  0.0000000000000D+00  0.0000000000000D+00
   325  3.2400000000000D+00  0.0000000000000D+00  0.0000000000000D+00
   326  3.2500000000000D+00  0.0000000000000D+00  0.0000000000000D+00
   327  3.2600000000000D+00  0.0000000000000D+00  0.0000000000000D+00
   328  3.2700000000000D+00  0.0000000000000D+00  0.0000000000000D+00
   329  3.2800000000000D+00  0.0000000000000D+00  0.0000000000000D+00
   330  3.2900000000000D+00  0.0000000000000D+00  0.0000000000000D+00
   331  3.3000000000000D+00  0.0000000000000D+00  0.0000000000000D+00
   332  3.3100000000000D+00  0.0000000000000D+00  0.0000000000000D+00
   333  3.3200000000000D+00  0.0000000000000D+00  0.0000000000000D+00
   334  3.3300000000000D+00  0.0000000000000D+00  0.0000000000000D+00
   335  3.3400000000000D+00  0.0000000000000D+00  0.0000000000000D+00
   336  3.3500000000000D+00  0.0000000000000D+00  0.0000000000000D+00
   337  3.3600000000000D+00  0.0000000000000D+00  0.0000000000000D+00
   338  3.3700000000000D+00  0.0000000000000D+00  0.0000000000000D+00
   339  3.3800000000000D+00  0.0000000000000D+00  0.0000000000000D+00
   340  3.3900000000000D+00  0.0000000000000D+00  0.0000000000000D+00
   341  3.4000000000000D+00  0.0000000000000D+00  0.0000000000000D+00
   342  3.4100000000000D+00  0.0000000000000D+00  0.0000000000000D+00
   343  3.4200000000000D+00  0.0000000000000D+00  0.0000000000000D+00
   344  3.4300000000000D+00  0.0000000000000D+00  0.0000000000000D+00
   345  3.4400000000000D+00  0.0000000000000D+00  0.0000000000000D+00
   346  3.4500000000000D+00  0.0000000000000D+00  0.0000000000000D+00
   347  3.4600000000000D+00  0.0000000000000D+00  0.0000000000000D+00
   348  3.4700000000000D+00  0.0000000000000D+00  0.0000000000000D+00
   349  3.4800000000000D+00  0.0000000000000D+00  0.0000000000000D+00
   350  3.4900000000000D+00  0.0000000000000D+00  0.0000000000000D+00
   351  3.5000000000000D+00  0.0000000000000D+00  0.0000000000000D+00
   352  3.5100000000000D+00  0.0000000000000D+00  0.0000000000000D+00
   353  3.5200000000000D+00  0.0000000000000D+00  0.0000000000000D+00
   354  3.5300000000000D+00  0.0000000000000D+00  0.0000000000000D+00
   355  3.5400000000000D+00  0.0000000000000D+00  0.0000000000000D+00
   356  3.5500000000000D+00  0.0000000000000D+00  0.0000000000000D+00
   357  3.5600000000000D+00  0.0000000000000D+00  0.0000000000000D+00
   358  3.5700000000000D+00  0.0000000000000D+00  0.0000000000000D+00
   359  3.5800000000000D+00  0.0000000000000D+00  0.0000000000000D+00
   360  3.5900000000000D+00  0.0000000000000D+00  0.0000000000000D+00
   361  3.6000000000000D+00  0.0000000000000D+00  0.0000000000000D+00
   362  3.6100000000000D+00  0.0000000000000D+00  0.0000000000000D+00
   363  3.6200000000000D+00  0.0000000000000D+00  0.0000000000000D+00
   364  3.6300000000000D+00  0.0000000000000D+00  0.0000000000000D+00
   365  3.6400000000000D+00  0.0000000000000D+00  0.0000000000000D+00
   366  3.6500000000000D+00  0.0000000000000D+00  0.0000000000000D+00
   367  3.6600000000000D+00  0.0000000000000D+00  0.0000000000000D+00
   368  3.6700000000000D+00  0.0000000000000D+00  0.0000000000000D+00
   369  3.6800000000000D+00  0.0000000000000D+00  0.0000000000000D+00
   370  3.6900000000000D+00  0.0000000000000D+00  0.0000000000000D+00
   371  3.7000000000000D+00  0.0000000000000D+00  0.0000000000000D+00
   372  3.7100000000000D+00  0.0000000000000D+00  0.0000000000000D+00
   373  3.7200000000000D+00  0.0000000000000D+00  0.0000000000000D+00
   374  3.7300000000000D+00  0.0000000000000D+00  0.0000000000000D+00
   375  3.7400000000000D+00  0.0000000000000D+00  0.0000000000000D+00
   376  3.7500000000000D+00  0.0000000000000D+00  0.0000000000000D+00
   377  3.7600000000000D+00  0.0000000000000D+00  0.0000000000000D+00
   378  3.7700000000000D+00  0.0000000000000D+00  0.0000000000000D+00
   379  3.7800000000000D+00  0.0000000000000D+00  0.0000000000000D+00
   380  3.7900000000000D+00  0.0000000000000D+00  0.0000000000000D+00
   381  3.8000000000000D+00  0.0000000000000D+00  0.0000000000000D+00
   382  3.8100000000000D+00  0.0000000000000D+00  0.0000000000000D+00
   383  3.8200000000000D+00  0.0000000000000D+00  0.0000000000000D+00
   384  3.8300000000000D+00  0.0000000000000D+00  0.0000000000000D+00
   385  3.8400000000000D+00  0.0000000000000D+00  0.0000000000000D+00
   386  3.8500000000000D+00  0.0000000000000D+00  0.0000000000000D+00
   387  3.8600000000000D+00  0.0000000000000D+00  0.0000000000000D+00
   388  3.8700000000000D+00  0.0000000000000D+00  0.0000000000000D+00
   389  3.8800000000000D+00  0.0000000000000D+00  0.0000000000000D+00
   390  3.8900000000000D+00  0.0000000000000D+00  0.0000000000000D+00
   391  3.9000000000000D+00  0.0000000000000D+00  0.0000000000000D+00
   392  3.9100000000000D+00  0.0000000000000D+00  0.0000000000000D+00
   393  3.9200000000000D+00  0.0000000000000D+00  0.0000000000000D+00
   394  3.9300000000000D+00  0.0000000000000D+00  0.0000000000000D+00
   395  3.9400000000000D+00  0.0000000000000D+00  0.0000000000000D+00
   396  3.9500000000000D+00  0.0000000000000D+00  0.0000000000000D+00
   397  3.9600000000000D+00  0.0000000000000D+00  0.0000000000000D+00
   398  3.9700000000000D+00  0.0000000000000D+00  0.0000000000000D+00
   399  3.9800000000000D+00  0.0000000000000D+00  0.0000000000000D+00
   400  3.9900000000000D+00  0.0000000000000D+00  0.0000000000000D+00
   401  4.0000000000000D+00  0.0000000000000D+00  0.0000000000000D+00
   402  4.0100000000000D+00  0.0000000000000D+00  0.0000000000000D+00
   403  4.0200000000000D+00  0.0000000000000D+00  0.0000000000000D+00
   404  4.0300000000000D+00  0.0000000000000D+00  0.0000000000000D+00
   405  4.0400000000000D+00  0.0000000000000D+00  0.0000000000000D+00
   406  4.0500000000000D+00  0.0000000000000D+00  0.0000000000000D+00
   407  4.0600000000000D+00  0.0000000000000D+00  0.0000000000000D+00
   408  4.0700000000000D+00  0.0000000000000D+00  0.0000000000000D+00
   409  4.0800000000000D+00  0.0000000000000D+00  0.0000000000000D+00
   410  4.0900000000000D+00  0.0000000000000D+00  0.0000000000000D+00
   411  4.1000000000000D+00  0.0000000000000D+00  0.0000000000000D+00
   412  4.1100000000000D+00  0.0000000000000D+00  0.0000000000000D+00
   413  4.1200000000000D+00  0.0000000000000D+00  0.0000000000000D+00
   414  4.1300000000000D+00  0.0000000000000D+00  0.0000000000000D+00
   415  4.1400000000000D+00  0.0000000000000D+00  0.0000000000000D+00
   416  4.1500000000000D+00  0.0000000000000D+00  0.0000000000000D+00
   417  4.1600000000000D+00  0.0000000000000D+00  0.0000000000000D+00
   418  4.1700000000000D+00  0.0000000000000D+00  0.0000000000000D+00
   419  4.1800000000000D+00  0.0000000000000D+00  0.0000000000000D+00
   420  4.1900000000000D+00  0.0000000000000D+00  0.0000000000000D+00
   421  4.2000000000000D+00  0.0000000000000D+00  0.0000000000000D+00
   422  4.2100000000000D+00  0.0000000000000D+00  0.0000000000000D+00