Sc    ONCVPSP-3.3.0  r_core=   1.35663   1.35663   1.66161
     21.0000     11.0000      220117    zatom,zion,pspd
     8      11   2     4   600     0    pspcod,pspxc,lmax,lloc,mmax,r2well
  5.99000000  0.00000000  0.00000000    rchrg fchrg qchrg
     2     2     2     0     0    nproj
     1     1           extension_switch
   0                         1.0845476256953D+01  9.5462313171788D-01
     1  0.0000000000000D+00  3.4765891276933D-09 -1.6175232070426D-08
     2  1.0000000000000D-02  7.5078284682178D-02 -2.3462170479188D-02
     3  2.0000000000000D-02  1.5004636984158D-01 -4.7041391876837D-02
     4  3.0000000000000D-02  2.2479290411924D-01 -7.0847913813998D-02
     5  4.0000000000000D-02  2.9920427037961D-01 -9.4978562061198D-02
     6  5.0000000000000D-02  3.7316354663929D-01 -1.1951046918267D-01
     7  6.0000000000000D-02  4.4654957701571D-01 -1.4449532434883D-01
     8  7.0000000000000D-02  5.1923618516514D-01 -1.6995429581326D-01
     9  8.0000000000000D-02  5.9109155920325D-01 -1.9587376337519D-01
    10  9.0000000000000D-02  6.6197783290991D-01 -2.2220197865134D-01
    11  1.0000000000000D-01  7.3175088321326D-01 -2.4884674861868D-01
    12  1.1000000000000D-01  8.0026035863622D-01 -2.7567421318604D-01
    13  1.2000000000000D-01  8.6734994769810D-01 -3.0250876108862D-01
    14  1.3000000000000D-01  9.3285789032670D-01 -3.2913410079477D-01
    15  1.4000000000000D-01  9.9661772929271D-01 -3.5529547502157D-01
    16  1.5000000000000D-01  1.0584592926696D+00 -3.8070297953394D-01
    17  1.6000000000000D-01  1.1182098924911D+00 -4.0503591981338D-01
    18  1.7000000000000D-01  1.1756957192609D+00 -4.2794811356725D-01
    19  1.8000000000000D-01  1.2307434069009D+00 -4.4907402351705D-01
    20  1.9000000000000D-01  1.2831817382159D+00 -4.6803558401666D-01
    21  2.0000000000000D-01  1.3328434571279D+00 -4.8444956731042D-01
    22  2.1000000000000D-01  1.3795671508661D+00 -4.9793532107448D-01
    23  2.2000000000000D-01  1.4231991630809D+00 -5.0812269864374D-01
    24  2.3000000000000D-01  1.4635954975266D+00 -5.1465999726384D-01
    25  2.4000000000000D-01  1.5006236715670D+00 -5.1722171798637D-01
    26  2.5000000000000D-01  1.5341644793140D+00 -5.1551596350271D-01
    27  2.6000000000000D-01  1.5641136257036D+00 -5.0929129724669D-01
    28  2.7000000000000D-01  1.5903831952136D+00 -4.9834289834061D-01
    29  2.8000000000000D-01  1.6129029221820D+00 -4.8251786217141D-01
    30  2.9000000000000D-01  1.6316212337267D+00 -4.6171951522409D-01
    31  3.0000000000000D-01  1.6465060409986D+00 -4.3591063484459D-01
    32  3.1000000000000D-01  1.6575452598189D+00 -4.0511548935212D-01
    33  3.2000000000000D-01  1.6647470475391D+00 -3.6942064080604D-01
    34  3.3000000000000D-01  1.6681397490782D+00 -3.2897448113389D-01
    35  3.4000000000000D-01  1.6677715514055D+00 -2.8398550158735D-01
    36  3.5000000000000D-01  1.6637098520935D+00 -2.3471932493111D-01
    37  3.6000000000000D-01  1.6560403538280D+00 -1.8149455869529D-01
    38  3.7000000000000D-01  1.6448659027695D+00 -1.2467755555250D-01
    39  3.8000000000000D-01  1.6303050942913D+00 -6.4676192763163D-02
    40  3.9000000000000D-01  1.6124906747191D+00 -1.9328060423519D-03
    41  4.0000000000000D-01  1.5915677721668D+00  6.3083566420015D-02
    42  4.1000000000000D-01  1.5676919932764D+00  1.2988545720634D-01
    43  4.2000000000000D-01  1.5410274255524D+00  1.9797557470639D-01
    44  4.3000000000000D-01  1.5117445869478D+00  2.6685554583762D-01
    45  4.4000000000000D-01  1.4800183653751D+00  3.3603459822990D-01
    46  4.5000000000000D-01  1.4460259908353D+00  4.0503798416880D-01
    47  4.6000000000000D-01  1.4099450818932D+00  4.7341495376080D-01
    48  4.7000000000000D-01  1.3719518062843D+00  5.4074609451305D-01
    49  4.8000000000000D-01  1.3322191925600D+00  6.0664986862125D-01
    50  4.9000000000000D-01  1.2909156259328D+00  6.7078819742439D-01
    51  5.0000000000000D-01  1.2482035569459D+00  7.3287096432559D-01
    52  5.1000000000000D-01  1.2042384463732D+00  7.9265933249713D-01
    53  5.2000000000000D-01  1.1591679639652D+00  8.4996780134054D-01
    54  5.3000000000000D-01  1.1131314524401D+00  9.0466495531938D-01
    55  5.4000000000000D-01  1.0662596616096D+00  9.5667288971077D-01
    56  5.5000000000000D-01  1.0186747508810D+00  1.0059653294161D+00
    57  5.6000000000000D-01  9.7049055175465D-01  1.0525644883455D+00
    58  5.7000000000000D-01  9.2181307548361D-01  1.0965367474462D+00
    59  5.8000000000000D-01  8.7274124494135D-01  1.1379872583822D+00
    60  5.9000000000000D-01  8.2336782410601D-01  1.1770536064866D+00
    61  6.0000000000000D-01  7.7378051353721D-01  1.2138986903326D+00
    62  6.1000000000000D-01  7.2406317593788D-01  1.2487029954159D+00
    63  6.2000000000000D-01  6.7429715245228D-01  1.2816564555844D+00
    64  6.3000000000000D-01  6.2456262784412D-01  1.3129501075539D+00
    65  6.4000000000000D-01  5.7494000120189D-01  1.3427677507502D+00
    66  6.5000000000000D-01  5.2551121836024D-01  1.3712778266949D+00
    67  6.6000000000000D-01  4.7636102285099D-01  1.3986257289896D+00
    68  6.7000000000000D-01  4.2757808386397D-01  1.4249267468548D+00
    69  6.8000000000000D-01  3.7925596242807D-01  1.4502598320297D+00
    70  6.9000000000000D-01  3.3149388071513D-01  1.4746623611413D+00
    71  7.0000000000000D-01  2.8439726396932D-01  1.4981260436321D+00
    72  7.1000000000000D-01  2.3807802996783D-01  1.5205940995226D+00
    73  7.2000000000000D-01  1.9265460702578D-01  1.5419598021115D+00
    74  7.3000000000000D-01  1.4825166818734D-01  1.5620664490775D+00
    75  7.4000000000000D-01  1.0499957629575D-01  1.5807087917791D+00
    76  7.5000000000000D-01  6.3033541912936D-02  1.5976359178024D+00
    77  7.6000000000000D-01  2.2492503397982D-02  1.6125555467456D+00
    78  7.7000000000000D-01 -1.6482254275530D-02  1.6251396644652D+00
    79  7.8000000000000D-01 -5.3748718433721D-02  1.6350313877453D+00
    80  7.9000000000000D-01 -8.9165975279158D-02  1.6418529199962D+00
    81  8.0000000000000D-01 -1.2259620813339D-01  1.6452144301018D+00
    82  8.1000000000000D-01 -1.5390682616668D-01  1.6447236615492D+00
    83  8.2000000000000D-01 -1.8297267813291D-01  1.6399960581129D+00
    84  8.3000000000000D-01 -2.0967830231454D-01  1.6306651761621D+00
    85  8.4000000000000D-01 -2.3392016165137D-01  1.6163931425479D+00
    86  8.5000000000000D-01 -2.5560881194300D-01  1.5968809113210D+00
    87  8.6000000000000D-01 -2.7467095112093D-01  1.5718780724223D+00
    88  8.7000000000000D-01 -2.9105129889565D-01  1.5411919710694D+00
    89  8.8000000000000D-01 -3.0471425858300D-01  1.5046959077452D+00
    90  8.9000000000000D-01 -3.1564531656403D-01  1.4623362053205D+00
    91  9.0000000000000D-01 -3.2385213956312D-01  1.4141379515801D+00
    92  9.1000000000000D-01 -3.2936533565018D-01  1.3602092518506D+00
    93  9.2000000000000D-01 -3.3223885146557D-01  1.3007438569901D+00
    94  9.3000000000000D-01 -3.3254998549448D-01  1.2360220660708D+00
    95  9.4000000000000D-01 -3.3039900512411D-01  1.1664098399142D+00
    96  9.5000000000000D-01 -3.2590836353144D-01  1.0923561004404D+00
    97  9.6000000000000D-01 -3.1922152098934D-01  1.0143882307056D+00
    98  9.7000000000000D-01 -3.1050138373641D-01  9.3310583055663D-01
    99  9.8000000000000D-01 -2.9992838209041D-01  8.4917282282931D-01
   100  9.9000000000000D-01 -2.8769821727215D-01  7.6330804157047D-01
   101  1.0000000000000D+00 -2.7401931431627D-01  6.7627447094031D-01
   102  1.0100000000000D+00 -2.5911002502481D-01  5.8886733444915D-01
   103  1.0200000000000D+00 -2.4319563097473D-01  5.0190126276658D-01
   104  1.0300000000000D+00 -2.2650520153840D-01  4.1619679178082D-01
   105  1.0400000000000D+00 -2.0926836570943D-01  3.3256646085111D-01
   106  1.0500000000000D+00 -1.9171205903797D-01  2.5180079328588D-01
   107  1.0600000000000D+00 -1.7405730841705D-01  1.7465444817891D-01
   108  1.0700000000000D+00 -1.5651611730392D-01  1.0183283239932D-01
   109  1.0800000000000D+00 -1.3928851260405D-01  3.3979455569909D-02
   110  1.0900000000000D+00 -1.2255981150363D-01 -2.8335702467326D-02
   111  1.1000000000000D+00 -1.0649816274965D-01 -8.4626559531133D-02
   112  1.1100000000000D+00 -9.1252411662747D-02 -1.3449980613255D-01
   113  1.1200000000000D+00 -7.6950331403511D-02 -1.7766209069689D-01
   114  1.1300000000000D+00 -6.3697255875667D-02 -2.1392535103295D-01
   115  1.1400000000000D+00 -5.1575141151395D-02 -2.4321016747933D-01
   116  1.1500000000000D+00 -4.0642074749540D-02 -2.6554704818077D-01
   117  1.1600000000000D+00 -3.0932240675757D-02 -2.8107560997834D-01
   118  1.1700000000000D+00 -2.2456339596364D-02 -2.9004165807394D-01
   119  1.1800000000000D+00 -1.5202454271668D-02 -2.9279221060706D-01
   120  1.1900000000000D+00 -9.1373406905613D-03 -2.8976855931859D-01
   121  1.2000000000000D+00 -4.2081149523084D-03 -2.8149750586470D-01
   122  1.2100000000000D+00 -3.4429767573348D-04 -2.6858095183769D-01
   123  1.2200000000000D+00  2.5398272758370D-03 -2.5168404378561D-01
   124  1.2300000000000D+00  4.5425950187758D-03 -2.3152213068717D-01
   125  1.2400000000000D+00  5.7721406371343D-03 -2.0884680324457D-01
   126  1.2500000000000D+00  6.3434411266978D-03 -1.8443130475961D-01
   127  1.2600000000000D+00  6.3752864657350D-03 -1.5905563125463D-01
   128  1.2700000000000D+00  5.9872500378969D-03 -1.3349164894823D-01
   129  1.2800000000000D+00  5.2967173691087D-03 -1.0848849948171D-01
   130  1.2900000000000D+00  4.4160604196689D-03 -8.4758709541507D-02
   131  1.3000000000000D+00  3.4499283025502D-03 -6.2964829147776D-02
   132  1.3100000000000D+00  2.4934171399662D-03 -4.3711968101443D-02
   133  1.3200000000000D+00  1.6289610687137D-03 -2.7531406623996D-02
   134  1.3300000000000D+00  9.1635961847209D-04 -1.4772649607002D-02
   135  1.3400000000000D+00  4.1787956694543D-04 -5.9702986082763D-03
   136  1.3500000000000D+00  1.7096668672711D-04 -1.4611961253641D-03
   137  1.3600000000000D+00  6.7169983395024D-05  1.5207950071154D-06
   138  1.3700000000000D+00  9.6700180279977D-06  6.0733394016759D-05
   139  1.3800000000000D+00 -5.5817699974911D-06 -5.5497957088025D-05
   140  1.3900000000000D+00  2.2389912275967D-07  1.1602755773878D-06
   141  1.4000000000000D+00  1.2405467766275D-06  7.8627894569301D-06
   142  1.4100000000000D+00 -2.0006511446174D-07  5.4898032149993D-07
   143  1.4200000000000D+00 -1.3431869495644D-07  3.6857160499481D-07
   144  1.4300000000000D+00  0.0000000000000D+00  0.0000000000000D+00
   145  1.4400000000000D+00  0.0000000000000D+00  0.0000000000000D+00
   146  1.4500000000000D+00  0.0000000000000D+00  0.0000000000000D+00
   147  1.4600000000000D+00  0.0000000000000D+00  0.0000000000000D+00
   148  1.4700000000000D+00  0.0000000000000D+00  0.0000000000000D+00
   149  1.4800000000000D+00  0.0000000000000D+00  0.0000000000000D+00
   150  1.4900000000000D+00  0.0000000000000D+00  0.0000000000000D+00
   151  1.5000000000000D+00  0.0000000000000D+00  0.0000000000000D+00
   152  1.5100000000000D+00  0.0000000000000D+00  0.0000000000000D+00
   153  1.5200000000000D+00  0.0000000000000D+00  0.0000000000000D+00
   154  1.5300000000000D+00  0.0000000000000D+00  0.0000000000000D+00
   155  1.5400000000000D+00  0.0000000000000D+00  0.0000000000000D+00
   156  1.5500000000000D+00  0.0000000000000D+00  0.0000000000000D+00
   157  1.5600000000000D+00  0.0000000000000D+00  0.0000000000000D+00
   158  1.5700000000000D+00  0.0000000000000D+00  0.0000000000000D+00
   159  1.5800000000000D+00  0.0000000000000D+00  0.0000000000000D+00
   160  1.5900000000000D+00  0.0000000000000D+00  0.0000000000000D+00
   161  1.6000000000000D+00  0.0000000000000D+00  0.0000000000000D+00
   162  1.6100000000000D+00  0.0000000000000D+00  0.0000000000000D+00
   163  1.6200000000000D+00  0.0000000000000D+00  0.0000000000000D+00
   164  1.6300000000000D+00  0.0000000000000D+00  0.0000000000000D+00
   165  1.6400000000000D+00  0.0000000000000D+00  0.0000000000000D+00
   166  1.6500000000000D+00  0.0000000000000D+00  0.0000000000000D+00
   167  1.6600000000000D+00  0.0000000000000D+00  0.0000000000000D+00
   168  1.6700000000000D+00  0.0000000000000D+00  0.0000000000000D+00
   169  1.6800000000000D+00  0.0000000000000D+00  0.0000000000000D+00
   170  1.6900000000000D+00  0.0000000000000D+00  0.0000000000000D+00
   171  1.7000000000000D+00  0.0000000000000D+00  0.0000000000000D+00
   172  1.7100000000000D+00  0.0000000000000D+00  0.0000000000000D+00
   173  1.7200000000000D+00  0.0000000000000D+00  0.0000000000000D+00
   174  1.7300000000000D+00  0.0000000000000D+00  0.0000000000000D+00
   175  1.7400000000000D+00  0.0000000000000D+00  0.0000000000000D+00
   176  1.7500000000000D+00  0.0000000000000D+00  0.0000000000000D+00
   177  1.7600000000000D+00  0.0000000000000D+00  0.0000000000000D+00
   178  1.7700000000000D+00  0.0000000000000D+00  0.0000000000000D+00
   179  1.7800000000000D+00  0.0000000000000D+00  0.0000000000000D+00
   180  1.7900000000000D+00  0.0000000000000D+00  0.0000000000000D+00
   181  1.8000000000000D+00  0.0000000000000D+00  0.0000000000000D+00
   182  1.8100000000000D+00  0.0000000000000D+00  0.0000000000000D+00
   183  1.8200000000000D+00  0.0000000000000D+00  0.0000000000000D+00
   184  1.8300000000000D+00  0.0000000000000D+00  0.0000000000000D+00
   185  1.8400000000000D+00  0.0000000000000D+00  0.0000000000000D+00
   186  1.8500000000000D+00  0.0000000000000D+00  0.0000000000000D+00
   187  1.8600000000000D+00  0.0000000000000D+00  0.0000000000000D+00
   188  1.8700000000000D+00  0.0000000000000D+00  0.0000000000000D+00
   189  1.8800000000000D+00  0.0000000000000D+00  0.0000000000000D+00
   190  1.8900000000000D+00  0.0000000000000D+00  0.0000000000000D+00
   191  1.9000000000000D+00  0.0000000000000D+00  0.0000000000000D+00
   192  1.9100000000000D+00  0.0000000000000D+00  0.0000000000000D+00
   193  1.9200000000000D+00  0.0000000000000D+00  0.0000000000000D+00
   194  1.9300000000000D+00  0.0000000000000D+00  0.0000000000000D+00
   195  1.9400000000000D+00  0.0000000000000D+00  0.0000000000000D+00
   196  1.9500000000000D+00  0.0000000000000D+00  0.0000000000000D+00
   197  1.9600000000000D+00  0.0000000000000D+00  0.0000000000000D+00
   198  1.9700000000000D+00  0.0000000000000D+00  0.0000000000000D+00
   199  1.9800000000000D+00  0.0000000000000D+00  0.0000000000000D+00
   200  1.9900000000000D+00  0.0000000000000D+00  0.0000000000000D+00
   201  2.0000000000000D+00  0.0000000000000D+00  0.0000000000000D+00
   202  2.0100000000000D+00  0.0000000000000D+00  0.0000000000000D+00
   203  2.0200000000000D+00  0.0000000000000D+00  0.0000000000000D+00
   204  2.0300000000000D+00  0.0000000000000D+00  0.0000000000000D+00
   205  2.0400000000000D+00  0.0000000000000D+00  0.0000000000000D+00
   206  2.0500000000000D+00  0.0000000000000D+00  0.0000000000000D+00
   207  2.0600000000000D+00  0.0000000000000D+00  0.0000000000000D+00
   208  2.0700000000000D+00  0.0000000000000D+00  0.0000000000000D+00
   209  2.0800000000000D+00  0.0000000000000D+00  0.0000000000000D+00
   210  2.0900000000000D+00  0.0000000000000D+00  0.0000000000000D+00
   211  2.1000000000000D+00  0.0000000000000D+00  0.0000000000000D+00
   212  2.1100000000000D+00  0.0000000000000D+00  0.0000000000000D+00
   213  2.1200000000000D+00  0.0000000000000D+00  0.0000000000000D+00
   214  2.1300000000000D+00  0.0000000000000D+00  0.0000000000000D+00
   215  2.1400000000000D+00  0.0000000000000D+00  0.0000000000000D+00
   216  2.1500000000000D+00  0.0000000000000D+00  0.0000000000000D+00
   217  2.1600000000000D+00  0.0000000000000D+00  0.0000000000000D+00
   218  2.1700000000000D+00  0.0000000000000D+00  0.0000000000000D+00
   219  2.1800000000000D+00  0.0000000000000D+00  0.0000000000000D+00
   220  2.1900000000000D+00  0.0000000000000D+00  0.0000000000000D+00
   221  2.2000000000000D+00  0.0000000000000D+00  0.0000000000000D+00
   222  2.2100000000000D+00  0.0000000000000D+00  0.0000000000000D+00
   223  2.2200000000000D+00  0.0000000000000D+00  0.0000000000000D+00
   224  2.2300000000000D+00  0.0000000000000D+00  0.0000000000000D+00
   225  2.2400000000000D+00  0.0000000000000D+00  0.0000000000000D+00
   226  2.2500000000000D+00  0.0000000000000D+00  0.0000000000000D+00
   227  2.2600000000000D+00  0.0000000000000D+00  0.0000000000000D+00
   228  2.2700000000000D+00  0.0000000000000D+00  0.0000000000000D+00
   229  2.2800000000000D+00  0.0000000000000D+00  0.0000000000000D+00
   230  2.2900000000000D+00  0.0000000000000D+00  0.0000000000000D+00
   231  2.3000000000000D+00  0.0000000000000D+00  0.0000000000000D+00
   232  2.3100000000000D+00  0.0000000000000D+00  0.0000000000000D+00
   233  2.3200000000000D+00  0.0000000000000D+00  0.0000000000000D+00
   234  2.3300000000000D+00  0.0000000000000D+00  0.0000000000000D+00
   235  2.3400000000000D+00  0.0000000000000D+00  0.0000000000000D+00
   236  2.3500000000000D+00  0.0000000000000D+00  0.0000000000000D+00
   237  2.3600000000000D+00  0.0000000000000D+00  0.0000000000000D+00
   238  2.3700000000000D+00  0.0000000000000D+00  0.0000000000000D+00
   239  2.3800000000000D+00  0.0000000000000D+00  0.0000000000000D+00
   240  2.3900000000000D+00  0.0000000000000D+00  0.0000000000000D+00
   241  2.4000000000000D+00  0.0000000000000D+00  0.0000000000000D+00
   242  2.4100000000000D+00  0.0000000000000D+00  0.0000000000000D+00
   243  2.4200000000000D+00  0.0000000000000D+00  0.0000000000000D+00
   244  2.4300000000000D+00  0.0000000000000D+00  0.0000000000000D+00
   245  2.4400000000000D+00  0.0000000000000D+00  0.0000000000000D+00
   246  2.4500000000000D+00  0.0000000000000D+00  0.0000000000000D+00
   247  2.4600000000000D+00  0.0000000000000D+00  0.0000000000000D+00
   248  2.4700000000000D+00  0.0000000000000D+00  0.0000000000000D+00
   249  2.4800000000000D+00  0.0000000000000D+00  0.0000000000000D+00
   250  2.4900000000000D+00  0.0000000000000D+00  0.0000000000000D+00
   251  2.5000000000000D+00  0.0000000000000D+00  0.0000000000000D+00
   252  2.5100000000000D+00  0.0000000000000D+00  0.0000000000000D+00
   253  2.5200000000000D+00  0.0000000000000D+00  0.0000000000000D+00
   254  2.5300000000000D+00  0.0000000000000D+00  0.0000000000000D+00
   255  2.5400000000000D+00  0.0000000000000D+00  0.0000000000000D+00
   256  2.5500000000000D+00  0.0000000000000D+00  0.0000000000000D+00
   257  2.5600000000000D+00  0.0000000000000D+00  0.0000000000000D+00
   258  2.5700000000000D+00  0.0000000000000D+00  0.0000000000000D+00
   259  2.5800000000000D+00  0.0000000000000D+00  0.0000000000000D+00
   260  2.5900000000000D+00  0.0000000000000D+00  0.0000000000000D+00
   261  2.6000000000000D+00  0.0000000000000D+00  0.0000000000000D+00
   262  2.6100000000000D+00  0.0000000000000D+00  0.0000000000000D+00
   263  2.6200000000000D+00  0.0000000000000D+00  0.0000000000000D+00
   264  2.6300000000000D+00  0.0000000000000D+00  0.0000000000000D+00
   265  2.6400000000000D+00  0.0000000000000D+00  0.0000000000000D+00
   266  2.6500000000000D+00  0.0000000000000D+00  0.0000000000000D+00
   267  2.6600000000000D+00  0.0000000000000D+00  0.0000000000000D+00
   268  2.6700000000000D+00  0.0000000000000D+00  0.0000000000000D+00
   269  2.6800000000000D+00  0.0000000000000D+00  0.0000000000000D+00
   270  2.6900000000000D+00  0.0000000000000D+00  0.0000000000000D+00
   271  2.7000000000000D+00  0.0000000000000D+00  0.0000000000000D+00
   272  2.7100000000000D+00  0.0000000000000D+00  0.0000000000000D+00
   273  2.7200000000000D+00  0.0000000000000D+00  0.0000000000000D+00
   274  2.7300000000000D+00  0.0000000000000D+00  0.0000000000000D+00
   275  2.7400000000000D+00  0.0000000000000D+00  0.0000000000000D+00
   276  2.7500000000000D+00  0.0000000000000D+00  0.0000000000000D+00
   277  2.7600000000000D+00  0.0000000000000D+00  0.0000000000000D+00
   278  2.7700000000000D+00  0.0000000000000D+00  0.0000000000000D+00
   279  2.7800000000000D+00  0.0000000000000D+00  0.0000000000000D+00
   280  2.7900000000000D+00  0.0000000000000D+00  0.0000000000000D+00
   281  2.8000000000000D+00  0.0000000000000D+00  0.0000000000000D+00
   282  2.8100000000000D+00  0.0000000000000D+00  0.0000000000000D+00
   283  2.8200000000000D+00  0.0000000000000D+00  0.0000000000000D+00
   284  2.8300000000000D+00  0.0000000000000D+00  0.0000000000000D+00
   285  2.8400000000000D+00  0.0000000000000D+00  0.0000000000000D+00
   286  2.8500000000000D+00  0.0000000000000D+00  0.0000000000000D+00
   287  2.8600000000000D+00  0.0000000000000D+00  0.0000000000000D+00
   288  2.8700000000000D+00  0.0000000000000D+00  0.0000000000000D+00
   289  2.8800000000000D+00  0.0000000000000D+00  0.0000000000000D+00
   290  2.8900000000000D+00  0.0000000000000D+00  0.0000000000000D+00
   291  2.9000000000000D+00  0.0000000000000D+00  0.0000000000000D+00
   292  2.9100000000000D+00  0.0000000000000D+00  0.0000000000000D+00
   293  2.9200000000000D+00  0.0000000000000D+00  0.0000000000000D+00
   294  2.9300000000000D+00  0.0000000000000D+00  0.0000000000000D+00
   295  2.9400000000000D+00  0.0000000000000D+00  0.0000000000000D+00
   296  2.9500000000000D+00  0.0000000000000D+00  0.0000000000000D+00
   297  2.9600000000000D+00  0.0000000000000D+00  0.0000000000000D+00
   298  2.9700000000000D+00  0.0000000000000D+00  0.0000000000000D+00
   299  2.9800000000000D+00  0.0000000000000D+00  0.0000000000000D+00
   300  2.9900000000000D+00  0.0000000000000D+00  0.0000000000000D+00
   301  3.0000000000000D+00  0.0000000000000D+00  0.0000000000000D+00
   302  3.0100000000000D+00  0.0000000000000D+00  0.0000000000000D+00
   303  3.0200000000000D+00  0.0000000000000D+00  0.0000000000000D+00
   304  3.0300000000000D+00  0.0000000000000D+00  0.0000000000000D+00
   305  3.0400000000000D+00  0.0000000000000D+00  0.0000000000000D+00
   306  3.0500000000000D+00  0.0000000000000D+00  0.0000000000000D+00
   307  3.0600000000000D+00  0.0000000000000D+00  0.0000000000000D+00
   308  3.0700000000000D+00  0.0000000000000D+00  0.0000000000000D+00
   309  3.0800000000000D+00  0.0000000000000D+00  0.0000000000000D+00
   310  3.0900000000000D+00  0.0000000000000D+00  0.0000000000000D+00
   311  3.1000000000000D+00  0.0000000000000D+00  0.0000000000000D+00
   312  3.1100000000000D+00  0.0000000000000D+00  0.0000000000000D+00
   313  3.1200000000000D+00  0.0000000000000D+00  0.0000000000000D+00
   314  3.1300000000000D+00  0.0000000000000D+00  0.0000000000000D+00
   315  3.1400000000000D+00  0.0000000000000D+00  0.0000000000000D+00
   316  3.1500000000000D+00  0.0000000000000D+00  0.0000000000000D+00
   317  3.1600000000000D+00  0.0000000000000D+00  0.0000000000000D+00
   318  3.1700000000000D+00  0.0000000000000D+00  0.0000000000000D+00
   319  3.1800000000000D+00  0.0000000000000D+00  0.0000000000000D+00
   320  3.1900000000000D+00  0.0000000000000D+00  0.0000000000000D+00
   321  3.2000000000000D+00  0.0000000000000D+00  0.0000000000000D+00
   322  3.2100000000000D+00  0.0000000000000D+00  0.0000000000000D+00
   323  3.2200000000000D+00  0.0000000000000D+00  0.0000000000000D+00
   324  3.2300000000000D+00  0.0000000000000D+00  0.0000000000000D+00
   325  3.2400000000000D+00  0.0000000000000D+00  0.0000000000000D+00
   326  3.2500000000000D+00  0.0000000000000D+00  0.0000000000000D+00
   327  3.2600000000000D+00  0.0000000000000D+00  0.0000000000000D+00
   328  3.2700000000000D+00  0.0000000000000D+00  0.0000000000000D+00
   329  3.2800000000000D+00  0.0000000000000D+00  0.0000000000000D+00
   330  3.2900000000000D+00  0.0000000000000D+00  0.0000000000000D+00
   331  3.3000000000000D+00  0.0000000000000D+00  0.0000000000000D+00
   332  3.3100000000000D+00  0.0000000000000D+00  0.0000000000000D+00
   333  3.3200000000000D+00  0.0000000000000D+00  0.0000000000000D+00
   334  3.3300000000000D+00  0.0000000000000D+00  0.0000000000000D+00
   335  3.3400000000000D+00  0.0000000000000D+00  0.0000000000000D+00
   336  3.3500000000000D+00  0.0000000000000D+00  0.0000000000000D+00
   337  3.3600000000000D+00  0.0000000000000D+00  0.0000000000000D+00
   338  3.3700000000000D+00  0.0000000000000D+00  0.0000000000000D+00
   339  3.3800000000000D+00  0.0000000000000D+00  0.0000000000000D+00
   340  3.3900000000000D+00  0.0000000000000D+00  0.0000000000000D+00
   341  3.4000000000000D+00  0.0000000000000D+00  0.0000000000000D+00
   342  3.4100000000000D+00  0.0000000000000D+00  0.0000000000000D+00
   343  3.4200000000000D+00  0.0000000000000D+00  0.0000000000000D+00
   344  3.4300000000000D+00  0.0000000000000D+00  0.0000000000000D+00
   345  3.4400000000000D+00  0.0000000000000D+00  0.0000000000000D+00
   346  3.4500000000000D+00  0.0000000000000D+00  0.0000000000000D+00
   347  3.4600000000000D+00  0.0000000000000D+00  0.0000000000000D+00
   348  3.4700000000000D+00  0.0000000000000D+00  0.0000000000000D+00
   349  3.4800000000000D+00  0.0000000000000D+00  0.0000000000000D+00
   350  3.4900000000000D+00  0.0000000000000D+00  0.0000000000000D+00
   351  3.5000000000000D+00  0.0000000000000D+00  0.0000000000000D+00
   352  3.5100000000000D+00  0.0000000000000D+00  0.0000000000000D+00
   353  3.5200000000000D+00  0.0000000000000D+00  0.0000000000000D+00
   354  3.5300000000000D+00  0.0000000000000D+00  0.0000000000000D+00
   355  3.5400000000000D+00  0.0000000000000D+00  0.0000000000000D+00
   356  3.5500000000000D+00  0.0000000000000D+00  0.0000000000000D+00
   357  3.5600000000000D+00  0.0000000000000D+00  0.0000000000000D+00
   358  3.5700000000000D+00  0.0000000000000D+00  0.0000000000000D+00
   359  3.5800000000000D+00  0.0000000000000D+00  0.0000000000000D+00
   360  3.5900000000000D+00  0.0000000000000D+00  0.0000000000000D+00
   361  3.6000000000000D+00  0.0000000000000D+00  0.0000000000000D+00
   362  3.6100000000000D+00  0.0000000000000D+00  0.0000000000000D+00
   363  3.6200000000000D+00  0.0000000000000D+00  0.0000000000000D+00
   364  3.6300000000000D+00  0.0000000000000D+00  0.0000000000000D+00
   365  3.6400000000000D+00  0.0000000000000D+00  0.0000000000000D+00
   366  3.6500000000000D+00  0.0000000000000D+00  0.0000000000000D+00
   367  3.6600000000000D+00  0.0000000000000D+00  0.0000000000000D+00
   368  3.6700000000000D+00  0.0000000000000D+00  0.0000000000000D+00
   369  3.6800000000000D+00  0.0000000000000D+00  0.0000000000000D+00
   370  3.6900000000000D+00  0.0000000000000D+00  0.0000000000000D+00
   371  3.7000000000000D+00  0.0000000000000D+00  0.0000000000000D+00
   372  3.7100000000000D+00  0.0000000000000D+00  0.0000000000000D+00
   373  3.7200000000000D+00  0.0000000000000D+00  0.0000000000000D+00
   374  3.7300000000000D+00  0.0000000000000D+00  0.0000000000000D+00
   375  3.7400000000000D+00  0.0000000000000D+00  0.0000000000000D+00
   376  3.7500000000000D+00  0.0000000000000D+00  0.0000000000000D+00
   377  3.7600000000000D+00  0.0000000000000D+00  0.0000000000000D+00
   378  3.7700000000000D+00  0.0000000000000D+00  0.0000000000000D+00
   379  3.7800000000000D+00  0.0000000000000D+00  0.0000000000000D+00
   380  3.7900000000000D+00  0.0000000000000D+00  0.0000000000000D+00
   381  3.8000000000000D+00  0.0000000000000D+00  0.0000000000000D+00
   382  3.8100000000000D+00  0.0000000000000D+00  0.0000000000000D+00
   383  3.8200000000000D+00  0.0000000000000D+00  0.0000000000000D+00
   384  3.8300000000000D+00  0.0000000000000D+00  0.0000000000000D+00
   385  3.8400000000000D+00  0.0000000000000D+00  0.0000000000000D+00
   386  3.8500000000000D+00  0.0000000000000D+00  0.0000000000000D+00
   387  3.8600000000000D+00  0.0000000000000D+00  0.0000000000000D+00
   388  3.8700000000000D+00  0.0000000000000D+00  0.0000000000000D+00
   389  3.8800000000000D+00  0.0000000000000D+00  0.0000000000000D+00
   390  3.8900000000000D+00  0.0000000000000D+00  0.0000000000000D+00
   391  3.9000000000000D+00  0.0000000000000D+00  0.0000000000000D+00
   392  3.9100000000000D+00  0.0000000000000D+00  0.0000000000000D+00
   393  3.9200000000000D+00  0.0000000000000D+00  0.0000000000000D+00
   394  3.9300000000000D+00  0.0000000000000D+00  0.0000000000000D+00
   395  3.9400000000000D+00  0.0000000000000D+00  0.0000000000000D+00
   396  3.9500000000000D+00  0.0000000000000D+00  0.0000000000000D+00
   397  3.9600000000000D+00  0.0000000000000D+00  0.0000000000000D+00
   398  3.9700000000000D+00  0.0000000000000D+00  0.0000000000000D+00
   399  3.9800000000000D+00  0.0000000000000D+00  0.0000000000000D+00
   400  3.9900000000000D+00  0.0000000000000D+00  0.0000000000000D+00
   401  4.0000000000000D+00  0.0000000000000D+00  0.0000000000000D+00
   402  4.0100000000000D+00  0.0000000000000D+00  0.0000000000000D+00
   403  4.0200000000000D+00  0.0000000000000D+00  0.0000000000000D+00
   404  4.0300000000000D+00  0.0000000000000D+00  0.0000000000000D+00
   405  4.0400000000000D+00  0.0000000000000D+00  0.0000000000000D+00
   406  4.0500000000000D+00  0.0000000000000D+00  0.0000000000000D+00
   407  4.0600000000000D+00  0.0000000000000D+00  0.0000000000000D+00
   408  4.0700000000000D+00  0.0000000000000D+00  0.0000000000000D+00
   409  4.0800000000000D+00  0.0000000000000D+00  0.0000000000000D+00
   410  4.0900000000000D+00  0.0000000000000D+00  0.0000000000000D+00
   411  4.1000000000000D+00  0.0000000000000D+00  0.0000000000000D+00
   412  4.1100000000000D+00  0.0000000000000D+00  0.0000000000000D+00
   413  4.1200000000000D+00  0.0000000000000D+00  0.0000000000000D+00
   414  4.1300000000000D+00  0.0000000000000D+00  0.0000000000000D+00
   415  4.1400000000000D+00  0.0000000000000D+00  0.0000000000000D+00
   416  4.1500000000000D+00  0.0000000000000D+00  0.0000000000000D+00
   417  4.1600000000000D+00  0.0000000000000D+00  0.0000000000000D+00
   418  4.1700000000000D+00  0.0000000000000D+00  0.0000000000000D+00
   419  4.1800000000000D+00  0.0000000000000D+00  0.0000000000000D+00
   420  4.1900000000000D+00  0.0000000000000D+00  0.0000000000000D+00
   421  4.2000000000000D+00  0.0000000000000D+00  0.0000000000000D+00
   422  4.2100000000000D+00  0.0000000000000D+00  0.0000000000000D+00