Pm    ONCVPSP-3.3.0  r_core=   1.90832   1.50328   1.75545   1.71406
     61.0000     15.0000      220117    zatom,zion,pspd
     8      11   3     4   600     0    pspcod,pspxc,lmax,lloc,mmax,r2well
  5.99000000  0.00000000  0.00000000    rchrg fchrg qchrg
     2     2     2     2     0    nproj
     1     1           extension_switch
   0                         8.1319226019265D+00  6.9455690805241D-01
     1  0.0000000000000D+00 -1.6672441205401D-11  1.2880295441331D-10
     2  1.0000000000000D-02  3.6857277133407D-02 -1.4108943852662D-02
     3  2.0000000000000D-02  7.3689019191541D-02 -2.8154573380663D-02
     4  3.0000000000000D-02  1.1046971305583D-01 -4.2074027546320D-02
     5  4.0000000000000D-02  1.4717388920909D-01 -5.5805347893874D-02
     6  5.0000000000000D-02  1.8377614276036D-01 -6.9287919893185D-02
     7  6.0000000000000D-02  2.2025115355067D-01 -8.2462902438244D-02
     8  7.0000000000000D-02  2.5657370505308D-01 -9.5273641704016D-02
     9  8.0000000000000D-02  2.9271870179693D-01 -1.0766606569396D-01
    10  9.0000000000000D-02  3.2866118506700D-01 -1.1958905596988D-01
    11  1.0000000000000D-01  3.6437634665226D-01 -1.3099479324433D-01
    12  1.1000000000000D-01  3.9983954044683D-01 -1.4183907373280D-01
    13  1.2000000000000D-01  4.3502629173660D-01 -1.5208159340553D-01
    14  1.3000000000000D-01  4.6991230403880D-01 -1.6168619754718D-01
    15  1.4000000000000D-01  5.0447346339826D-01 -1.7062109332291D-01
    16  1.5000000000000D-01  5.3868584008296D-01 -1.7885902336067D-01
    17  1.6000000000000D-01  5.7252568766183D-01 -1.8637739868912D-01
    18  1.7000000000000D-01  6.0596943949001D-01 -1.9315838971636D-01
    19  1.8000000000000D-01  6.3899370266981D-01 -1.9918897429277D-01
    20  1.9000000000000D-01  6.7157524959934D-01 -2.0446094227142D-01
    21  2.0000000000000D-01  7.0369100726468D-01 -2.0897085635599D-01
    22  2.1000000000000D-01  7.3531804447515D-01 -2.1271996940826D-01
    23  2.2000000000000D-01  7.6643355728355D-01 -2.1571409877100D-01
    24  2.3000000000000D-01  7.9701485287547D-01 -2.1796345854443D-01
    25  2.4000000000000D-01  8.2703933225057D-01 -2.1948245113238D-01
    26  2.5000000000000D-01  8.5648447205702D-01 -2.2028941974514D-01
    27  2.6000000000000D-01  8.8532780597428D-01 -2.2040636390550D-01
    28  2.7000000000000D-01  9.1354690607132D-01 -2.1985862035142D-01
    29  2.8000000000000D-01  9.4111936459505D-01 -2.1867451205748D-01
    30  2.9000000000000D-01  9.6802277666729D-01 -2.1688496840797D-01
    31  3.0000000000000D-01  9.9423472438815D-01 -2.1452311984124D-01
    32  3.1000000000000D-01  1.0197327628575D+00 -2.1162387054719D-01
    33  3.2000000000000D-01  1.0444944086360D+00 -2.0822345303433D-01
    34  3.3000000000000D-01  1.0684971311693D+00 -2.0435896858621D-01
    35  3.4000000000000D-01  1.0917183476987D+00 -2.0006791779916D-01
    36  3.5000000000000D-01  1.1141354221715D+00 -1.9538772553022D-01
    37  3.6000000000000D-01  1.1357256686501D+00 -1.9035526468475D-01
    38  3.7000000000000D-01  1.1564663596983D+00 -1.8500638333727D-01
    39  3.8000000000000D-01  1.1763347401963D+00 -1.7937543970261D-01
    40  3.9000000000000D-01  1.1953080470012D+00 -1.7349484946020D-01
    41  4.0000000000000D-01  1.2133635348305D+00 -1.6739464987808D-01
    42  4.1000000000000D-01  1.2304785086999D+00 -1.6110208508787D-01
    43  4.2000000000000D-01  1.2466303631947D+00 -1.5464121672532D-01
    44  4.3000000000000D-01  1.2617966287957D+00 -1.4803256397499D-01
    45  4.4000000000000D-01  1.2759550254181D+00 -1.4129277684289D-01
    46  4.5000000000000D-01  1.2890835232532D+00 -1.3443434622787D-01
    47  4.6000000000000D-01  1.3011604109302D+00 -1.2746535407339D-01
    48  4.7000000000000D-01  1.3121643709407D+00 -1.2038926655906D-01
    49  4.8000000000000D-01  1.3220745621843D+00 -1.1320477293578D-01
    50  4.9000000000000D-01  1.3308707094183D+00 -1.0590567222480D-01
    51  5.0000000000000D-01  1.3385331993033D+00 -9.8480809591096D-02
    52  5.1000000000000D-01  1.3450431826564D+00 -9.0914063768898D-02
    53  5.2000000000000D-01  1.3503826824364D+00 -8.3184386465480D-02
    54  5.3000000000000D-01  1.3545347069007D+00 -7.5265894203182D-02
    55  5.4000000000000D-01  1.3574833672911D+00 -6.7128012581485D-02
    56  5.5000000000000D-01  1.3592139993254D+00 -5.8735672458062D-02
    57  5.6000000000000D-01  1.3597132876942D+00 -5.0049557060795D-02
    58  5.7000000000000D-01  1.3589693926909D+00 -4.1026398561327D-02
    59  5.8000000000000D-01  1.3569720780351D+00 -3.1619322164081D-02
    60  5.9000000000000D-01  1.3537128388912D+00 -2.1778235303239D-02
    61  6.0000000000000D-01  1.3491850290272D+00 -1.1450259094090D-02
    62  6.1000000000000D-01  1.3433839860205D+00 -5.8019876271018D-04
    63  6.2000000000000D-01  1.3363071533753D+00  1.0888950619214D-02
    64  6.3000000000000D-01  1.3279541983958D+00  2.3015467131055D-02
    65  6.4000000000000D-01  1.3183271246433D+00  3.5858338098878D-02
    66  6.5000000000000D-01  1.3074303778014D+00  4.9476673945963D-02
    67  6.6000000000000D-01  1.2952709437839D+00  6.3929104700558D-02
    68  6.7000000000000D-01  1.2818584379400D+00  7.9273164262946D-02
    69  6.8000000000000D-01  1.2672051842451D+00  9.5564667684148D-02
    70  6.9000000000000D-01  1.2513262834147D+00  1.1285708680594D-01
    71  7.0000000000000D-01  1.2342396689359D+00  1.3120092965751D-01
    72  7.1000000000000D-01  1.2159661500849D+00  1.5064312899286D-01
    73  7.2000000000000D-01  1.1965294410852D+00  1.7122644528719D-01
    74  7.3000000000000D-01  1.1759561756586D+00  1.9298888938931D-01
    75  7.4000000000000D-01  1.1542759063280D+00  2.1596316985071D-01
    76  7.5000000000000D-01  1.1315210879568D+00  2.4017616972168D-01
    77  7.6000000000000D-01  1.1077270451334D+00  2.6564845732390D-01
    78  7.7000000000000D-01  1.0829319231558D+00  2.9239383517969D-01
    79  7.8000000000000D-01  1.0571766225118D+00  3.2041893090211D-01
    80  7.9000000000000D-01  1.0305047169099D+00  3.4972283343584D-01
    81  8.0000000000000D-01  1.0029623550702D+00  3.8029677758511D-01
    82  8.1000000000000D-01  9.7459814664918D-01  4.1212387928561D-01
    83  8.2000000000000D-01  9.4546303283218D-01  4.4517892356704D-01
    84  8.3000000000000D-01  9.1561014229428D-01  4.7942820663122D-01
    85  8.4000000000000D-01  8.8509463338536D-01  5.1482943293368D-01
    86  8.5000000000000D-01  8.5397352355384D-01  5.5133166761845D-01
    87  8.6000000000000D-01  8.2230550717016D-01  5.8887534412165D-01
    88  8.7000000000000D-01  7.9015076305098D-01  6.2739232623687D-01
    89  8.8000000000000D-01  7.5757075311282D-01  6.6680602343495D-01
    90  8.9000000000000D-01  7.2462801369866D-01  7.0703155775712D-01
    91  9.0000000000000D-01  6.9138594121982D-01  7.4797598016504D-01
    92  9.1000000000000D-01  6.5790857383686D-01  7.8953853383958D-01
    93  9.2000000000000D-01  6.2426037096500D-01  8.3161096157967D-01
    94  9.3000000000000D-01  5.9050599242964D-01  8.7407785417395D-01
    95  9.4000000000000D-01  5.5671007911517D-01  9.1681703639879D-01
    96  9.5000000000000D-01  5.2293703694265D-01  9.5969998715417D-01
    97  9.6000000000000D-01  4.8925082597901D-01  1.0025922901780D+00
    98  9.7000000000000D-01  4.5571475642091D-01  1.0453541117895D+00
    99  9.8000000000000D-01  4.2239129310928D-01  1.0878407022025D+00
   100  9.9000000000000D-01  3.8934187011606D-01  1.1299029171270D+00
   101  1.0000000000000D+00  3.5662671680340D-01  1.1713877566276D+00
   102  1.0100000000000D+00  3.2430469658114D-01  1.2121389185639D+00
   103  1.0200000000000D+00  2.9243315940567D-01  1.2519973643216D+00
   104  1.0300000000000D+00  2.6106780882672D-01  1.2908018950714D+00
   105  1.0400000000000D+00  2.3026258415590D-01  1.3283897373261D+00
   106  1.0500000000000D+00  2.0006955806310D-01  1.3645971371897D+00
   107  1.0600000000000D+00  1.7053884961851D-01  1.3992599633652D+00
   108  1.0700000000000D+00  1.4171855250591D-01  1.4322143196798D+00
   109  1.0800000000000D+00  1.1365467782783D-01  1.4632971685934D+00
   110  1.0900000000000D+00  8.6391110585158D-02  1.4923469679385D+00
   111  1.1000000000000D+00  5.9969578614898D-02  1.5192043238091D+00
   112  1.1100000000000D+00  3.4429632423226D-02  1.5437126632612D+00
   113  1.1200000000000D+00  9.8086340882735D-03  1.5657189310345D+00
   114  1.1300000000000D+00 -1.3858246946061D-02  1.5850743151826D+00
   115  1.1400000000000D+00 -3.6538033610549D-02  1.6016350069099D+00
   116  1.1500000000000D+00 -5.8199939177487D-02  1.6152630002430D+00
   117  1.1600000000000D+00 -7.8815366326927D-02  1.6258269373572D+00
   118  1.1700000000000D+00 -9.8357910412145D-02  1.6332030054419D+00
   119  1.1800000000000D+00 -1.1680337012430D-01  1.6372758907570D+00
   120  1.1900000000000D+00 -1.3412976879395D-01  1.6379397948568D+00
   121  1.2000000000000D+00 -1.5031738962670D-01  1.6350995177817D+00
   122  1.2100000000000D+00 -1.6534882806884D-01  1.6286716114595D+00
   123  1.2200000000000D+00 -1.7920906427711D-01  1.6185856051201D+00
   124  1.2300000000000D+00 -1.9188555851435D-01  1.6047853033103D+00
   125  1.2400000000000D+00 -2.0336837193545D-01  1.5872301547276D+00
   126  1.2500000000000D+00 -2.1365031457845D-01  1.5658966866709D+00
   127  1.2600000000000D+00 -2.2272712192741D-01  1.5407799975951D+00
   128  1.2700000000000D+00 -2.3059766090057D-01  1.5118952974420D+00
   129  1.2800000000000D+00 -2.3726416462606D-01  1.4792794783394D+00
   130  1.2900000000000D+00 -2.4273249479216D-01  1.4429926956649D+00
   131  1.3000000000000D+00 -2.4701242958883D-01  1.4031199356404D+00
   132  1.3100000000000D+00 -2.5011797246678D-01  1.3597725331890D+00
   133  1.3200000000000D+00 -2.5206767681003D-01  1.3130896032875D+00
   134  1.3300000000000D+00 -2.5288497988294D-01  1.2632393411263D+00
   135  1.3400000000000D+00 -2.5259853506023D-01  1.2104201277688D+00
   136  1.3500000000000D+00 -2.5124253298859D-01  1.1548613849909D+00
   137  1.3600000000000D+00 -2.4885699731293D-01  1.0968241013293D+00
   138  1.3700000000000D+00 -2.4548803584924D-01  1.0366009316382D+00
   139  1.3800000000000D+00 -2.4118803294989D-01  9.7451579262191D-01
   140  1.3900000000000D+00 -2.3601575485763D-01  9.1092281834338D-01
   141  1.4000000000000D+00 -2.3003634402752D-01  8.4620455742850D-01
   142  1.4100000000000D+00 -2.2332117510971D-01  7.8076927963057D-01
   143  1.4200000000000D+00 -2.1594752976271D-01  7.1504719534464D-01
   144  1.4300000000000D+00 -2.0799806313748D-01  6.4948545635819D-01
   145  1.4400000000000D+00 -1.9956000751125D-01  5.8454169304853D-01
   146  1.4500000000000D+00 -1.9072406832365D-01  5.2067588373901D-01
   147  1.4600000000000D+00 -1.8158294585222D-01  4.5834021142856D-01
   148  1.4700000000000D+00 -1.7222947280764D-01  3.9796706706790D-01
   149  1.4800000000000D+00 -1.6275420665593D-01  3.3995406980594D-01
   150  1.4900000000000D+00 -1.5324305188153D-01  2.8465055530501D-01
   151  1.5000000000000D+00 -1.4377161635595D-01  2.3232256017367D-01
   152  1.5100000000000D+00 -1.3440326994040D-01  1.8314518086143D-01
   153  1.5200000000000D+00 -1.2519019190521D-01  1.3721896858169D-01
   154  1.5300000000000D+00 -1.1617589217638D-01  9.4591831564209D-02
   155  1.5400000000000D+00 -1.0740067351628D-01  5.5299929354436D-02
   156  1.5500000000000D+00 -9.8900973231112D-02  1.9363805384396D-02
   157  1.5600000000000D+00 -9.0708472763651D-02 -1.3218518106532D-02
   158  1.5700000000000D+00 -8.2850677010258D-02 -4.2466605442878D-02
   159  1.5800000000000D+00 -7.5350704297153D-02 -6.8419065713015D-02
   160  1.5900000000000D+00 -6.8227412414265D-02 -9.1132524074688D-02
   161  1.6000000000000D+00 -6.1495458671263D-02 -1.1068118032227D-01
   162  1.6100000000000D+00 -5.5165405626606D-02 -1.2715611772082D-01
   163  1.6200000000000D+00 -4.9243854665061D-02 -1.4066449098348D-01
   164  1.6300000000000D+00 -4.3733606609617D-02 -1.5132859727101D-01
   165  1.6400000000000D+00 -3.8633847746471D-02 -1.5928483773160D-01
   166  1.6500000000000D+00 -3.3940359634057D-02 -1.6468257712726D-01
   167  1.6600000000000D+00 -2.9645751047785D-02 -1.6768290919272D-01
   168  1.6700000000000D+00 -2.5739709824894D-02 -1.6845733799682D-01
   169  1.6800000000000D+00 -2.2209272813977D-02 -1.6718638361913D-01
   170  1.6900000000000D+00 -1.9039111331980D-02 -1.6405812402739D-01
   171  1.7000000000000D+00 -1.6211830070643D-02 -1.5926668265183D-01
   172  1.7100000000000D+00 -1.3708276718537D-02 -1.5301067415580D-01
   173  1.7200000000000D+00 -1.1507859911153D-02 -1.4549161937070D-01
   174  1.7300000000000D+00 -9.5888729790977D-03 -1.3691234085214D-01
   175  1.7400000000000D+00 -7.9288205089703D-03 -1.2747535292787D-01
   176  1.7500000000000D+00 -6.5047450119171D-03 -1.1738125876882D-01
   177  1.7600000000000D+00 -5.2935515920125D-03 -1.0682716346105D-01
   178  1.7700000000000D+00 -4.2723286614224D-03 -9.6005111689613D-02
   179  1.7800000000000D+00 -3.4186601469863D-03 -8.5100572161092D-02
   180  1.7900000000000D+00 -2.7109261123217D-03 -7.4290983279987D-02
   181  1.8000000000000D+00 -2.1285919549886D-03 -6.3744357464857D-02
   182  1.8100000000000D+00 -1.6524840394098D-03 -5.3617953124826D-02
   183  1.8200000000000D+00 -1.2650485420092D-03 -4.4057030856182D-02
   184  1.8300000000000D+00 -9.5058794249416D-04 -3.5193720144937D-02
   185  1.8400000000000D+00 -6.9547882001051D-04 -2.7145978123922D-02
   186  1.8500000000000D+00 -4.8849973995604D-04 -2.0022862220711D-02
   187  1.8600000000000D+00 -3.2040680736483D-04 -1.3896287101854D-02
   188  1.8700000000000D+00 -1.8484135392786D-04 -8.8121989539538D-03
   189  1.8800000000000D+00 -7.8585096551951D-05 -4.8891527651531D-03
   190  1.8900000000000D+00 -2.0142483006410D-07 -2.2385686458564D-03
   191  1.9000000000000D+00  4.7484311443535D-05 -7.6347751044556D-04
   192  1.9100000000000D+00  5.8352324915389D-05 -1.2419467933295D-04
   193  1.9200000000000D+00  3.4396755611662D-05  4.5704541366519D-05
   194  1.9300000000000D+00  3.1779243450998D-06  8.2780748212367D-06
   195  1.9400000000000D+00 -7.7707351341545D-06 -2.5704124614454D-05
   196  1.9500000000000D+00 -3.6815722002658D-06 -1.4066492545657D-05
   197  1.9600000000000D+00  1.2889888575896D-06  2.8314311657782D-06
   198  1.9700000000000D+00  1.3835854838137D-06  3.4066887065186D-06
   199  1.9800000000000D+00 -5.5532914137835D-08  1.7788838461657D-07
   200  1.9900000000000D+00 -1.6860865951888D-07  5.4010351410218D-07
   201  2.0000000000000D+00 -3.3214300905373D-08  1.0639525092381D-07
   202  2.0100000000000D+00  0.0000000000000D+00  0.0000000000000D+00
   203  2.0200000000000D+00  0.0000000000000D+00  0.0000000000000D+00
   204  2.0300000000000D+00  0.0000000000000D+00  0.0000000000000D+00
   205  2.0400000000000D+00  0.0000000000000D+00  0.0000000000000D+00
   206  2.0500000000000D+00  0.0000000000000D+00  0.0000000000000D+00
   207  2.0600000000000D+00  0.0000000000000D+00  0.0000000000000D+00
   208  2.0700000000000D+00  0.0000000000000D+00  0.0000000000000D+00
   209  2.0800000000000D+00  0.0000000000000D+00  0.0000000000000D+00
   210  2.0900000000000D+00  0.0000000000000D+00  0.0000000000000D+00
   211  2.1000000000000D+00  0.0000000000000D+00  0.0000000000000D+00
   212  2.1100000000000D+00  0.0000000000000D+00  0.0000000000000D+00
   213  2.1200000000000D+00  0.0000000000000D+00  0.0000000000000D+00
   214  2.1300000000000D+00  0.0000000000000D+00  0.0000000000000D+00
   215  2.1400000000000D+00  0.0000000000000D+00  0.0000000000000D+00
   216  2.1500000000000D+00  0.0000000000000D+00  0.0000000000000D+00
   217  2.1600000000000D+00  0.0000000000000D+00  0.0000000000000D+00
   218  2.1700000000000D+00  0.0000000000000D+00  0.0000000000000D+00
   219  2.1800000000000D+00  0.0000000000000D+00  0.0000000000000D+00
   220  2.1900000000000D+00  0.0000000000000D+00  0.0000000000000D+00
   221  2.2000000000000D+00  0.0000000000000D+00  0.0000000000000D+00
   222  2.2100000000000D+00  0.0000000000000D+00  0.0000000000000D+00
   223  2.2200000000000D+00  0.0000000000000D+00  0.0000000000000D+00
   224  2.2300000000000D+00  0.0000000000000D+00  0.0000000000000D+00
   225  2.2400000000000D+00  0.0000000000000D+00  0.0000000000000D+00
   226  2.2500000000000D+00  0.0000000000000D+00  0.0000000000000D+00
   227  2.2600000000000D+00  0.0000000000000D+00  0.0000000000000D+00
   228  2.2700000000000D+00  0.0000000000000D+00  0.0000000000000D+00
   229  2.2800000000000D+00  0.0000000000000D+00  0.0000000000000D+00
   230  2.2900000000000D+00  0.0000000000000D+00  0.0000000000000D+00
   231  2.3000000000000D+00  0.0000000000000D+00  0.0000000000000D+00
   232  2.3100000000000D+00  0.0000000000000D+00  0.0000000000000D+00
   233  2.3200000000000D+00  0.0000000000000D+00  0.0000000000000D+00
   234  2.3300000000000D+00  0.0000000000000D+00  0.0000000000000D+00
   235  2.3400000000000D+00  0.0000000000000D+00  0.0000000000000D+00
   236  2.3500000000000D+00  0.0000000000000D+00  0.0000000000000D+00
   237  2.3600000000000D+00  0.0000000000000D+00  0.0000000000000D+00
   238  2.3700000000000D+00  0.0000000000000D+00  0.0000000000000D+00
   239  2.3800000000000D+00  0.0000000000000D+00  0.0000000000000D+00
   240  2.3900000000000D+00  0.0000000000000D+00  0.0000000000000D+00
   241  2.4000000000000D+00  0.0000000000000D+00  0.0000000000000D+00
   242  2.4100000000000D+00  0.0000000000000D+00  0.0000000000000D+00
   243  2.4200000000000D+00  0.0000000000000D+00  0.0000000000000D+00
   244  2.4300000000000D+00  0.0000000000000D+00  0.0000000000000D+00
   245  2.4400000000000D+00  0.0000000000000D+00  0.0000000000000D+00
   246  2.4500000000000D+00  0.0000000000000D+00  0.0000000000000D+00
   247  2.4600000000000D+00  0.0000000000000D+00  0.0000000000000D+00
   248  2.4700000000000D+00  0.0000000000000D+00  0.0000000000000D+00
   249  2.4800000000000D+00  0.0000000000000D+00  0.0000000000000D+00
   250  2.4900000000000D+00  0.0000000000000D+00  0.0000000000000D+00
   251  2.5000000000000D+00  0.0000000000000D+00  0.0000000000000D+00
   252  2.5100000000000D+00  0.0000000000000D+00  0.0000000000000D+00
   253  2.5200000000000D+00  0.0000000000000D+00  0.0000000000000D+00
   254  2.5300000000000D+00  0.0000000000000D+00  0.0000000000000D+00
   255  2.5400000000000D+00  0.0000000000000D+00  0.0000000000000D+00
   256  2.5500000000000D+00  0.0000000000000D+00  0.0000000000000D+00
   257  2.5600000000000D+00  0.0000000000000D+00  0.0000000000000D+00
   258  2.5700000000000D+00  0.0000000000000D+00  0.0000000000000D+00
   259  2.5800000000000D+00  0.0000000000000D+00  0.0000000000000D+00
   260  2.5900000000000D+00  0.0000000000000D+00  0.0000000000000D+00
   261  2.6000000000000D+00  0.0000000000000D+00  0.0000000000000D+00
   262  2.6100000000000D+00  0.0000000000000D+00  0.0000000000000D+00
   263  2.6200000000000D+00  0.0000000000000D+00  0.0000000000000D+00
   264  2.6300000000000D+00  0.0000000000000D+00  0.0000000000000D+00
   265  2.6400000000000D+00  0.0000000000000D+00  0.0000000000000D+00
   266  2.6500000000000D+00  0.0000000000000D+00  0.0000000000000D+00
   267  2.6600000000000D+00  0.0000000000000D+00  0.0000000000000D+00
   268  2.6700000000000D+00  0.0000000000000D+00  0.0000000000000D+00
   269  2.6800000000000D+00  0.0000000000000D+00  0.0000000000000D+00
   270  2.6900000000000D+00  0.0000000000000D+00  0.0000000000000D+00
   271  2.7000000000000D+00  0.0000000000000D+00  0.0000000000000D+00
   272  2.7100000000000D+00  0.0000000000000D+00  0.0000000000000D+00
   273  2.7200000000000D+00  0.0000000000000D+00  0.0000000000000D+00
   274  2.7300000000000D+00  0.0000000000000D+00  0.0000000000000D+00
   275  2.7400000000000D+00  0.0000000000000D+00  0.0000000000000D+00
   276  2.7500000000000D+00  0.0000000000000D+00  0.0000000000000D+00
   277  2.7600000000000D+00  0.0000000000000D+00  0.0000000000000D+00
   278  2.7700000000000D+00  0.0000000000000D+00  0.0000000000000D+00
   279  2.7800000000000D+00  0.0000000000000D+00  0.0000000000000D+00
   280  2.7900000000000D+00  0.0000000000000D+00  0.0000000000000D+00
   281  2.8000000000000D+00  0.0000000000000D+00  0.0000000000000D+00
   282  2.8100000000000D+00  0.0000000000000D+00  0.0000000000000D+00
   283  2.8200000000000D+00  0.0000000000000D+00  0.0000000000000D+00
   284  2.8300000000000D+00  0.0000000000000D+00  0.0000000000000D+00
   285  2.8400000000000D+00  0.0000000000000D+00  0.0000000000000D+00
   286  2.8500000000000D+00  0.0000000000000D+00  0.0000000000000D+00
   287  2.8600000000000D+00  0.0000000000000D+00  0.0000000000000D+00
   288  2.8700000000000D+00  0.0000000000000D+00  0.0000000000000D+00
   289  2.8800000000000D+00  0.0000000000000D+00  0.0000000000000D+00
   290  2.8900000000000D+00  0.0000000000000D+00  0.0000000000000D+00
   291  2.9000000000000D+00  0.0000000000000D+00  0.0000000000000D+00
   292  2.9100000000000D+00  0.0000000000000D+00  0.0000000000000D+00
   293  2.9200000000000D+00  0.0000000000000D+00  0.0000000000000D+00
   294  2.9300000000000D+00  0.0000000000000D+00  0.0000000000000D+00
   295  2.9400000000000D+00  0.0000000000000D+00  0.0000000000000D+00
   296  2.9500000000000D+00  0.0000000000000D+00  0.0000000000000D+00
   297  2.9600000000000D+00  0.0000000000000D+00  0.0000000000000D+00
   298  2.9700000000000D+00  0.0000000000000D+00  0.0000000000000D+00
   299  2.9800000000000D+00  0.0000000000000D+00  0.0000000000000D+00
   300  2.9900000000000D+00  0.0000000000000D+00  0.0000000000000D+00
   301  3.0000000000000D+00  0.0000000000000D+00  0.0000000000000D+00
   302  3.0100000000000D+00  0.0000000000000D+00  0.0000000000000D+00
   303  3.0200000000000D+00  0.0000000000000D+00  0.0000000000000D+00
   304  3.0300000000000D+00  0.0000000000000D+00  0.0000000000000D+00
   305  3.0400000000000D+00  0.0000000000000D+00  0.0000000000000D+00
   306  3.0500000000000D+00  0.0000000000000D+00  0.0000000000000D+00
   307  3.0600000000000D+00  0.0000000000000D+00  0.0000000000000D+00
   308  3.0700000000000D+00  0.0000000000000D+00  0.0000000000000D+00
   309  3.0800000000000D+00  0.0000000000000D+00  0.0000000000000D+00
   310  3.0900000000000D+00  0.0000000000000D+00  0.0000000000000D+00
   311  3.1000000000000D+00  0.0000000000000D+00  0.0000000000000D+00
   312  3.1100000000000D+00  0.0000000000000D+00  0.0000000000000D+00
   313  3.1200000000000D+00  0.0000000000000D+00  0.0000000000000D+00
   314  3.1300000000000D+00  0.0000000000000D+00  0.0000000000000D+00
   315  3.1400000000000D+00  0.0000000000000D+00  0.0000000000000D+00
   316  3.1500000000000D+00  0.0000000000000D+00  0.0000000000000D+00
   317  3.1600000000000D+00  0.0000000000000D+00  0.0000000000000D+00
   318  3.1700000000000D+00  0.0000000000000D+00  0.0000000000000D+00
   319  3.1800000000000D+00  0.0000000000000D+00  0.0000000000000D+00
   320  3.1900000000000D+00  0.0000000000000D+00  0.0000000000000D+00
   321  3.2000000000000D+00  0.0000000000000D+00  0.0000000000000D+00
   322  3.2100000000000D+00  0.0000000000000D+00  0.0000000000000D+00
   323  3.2200000000000D+00  0.0000000000000D+00  0.0000000000000D+00
   324  3.2300000000000D+00  0.0000000000000D+00  0.0000000000000D+00
   325  3.2400000000000D+00  0.0000000000000D+00  0.0000000000000D+00
   326  3.2500000000000D+00  0.0000000000000D+00  0.0000000000000D+00
   327  3.2600000000000D+00  0.0000000000000D+00  0.0000000000000D+00
   328  3.2700000000000D+00  0.0000000000000D+00  0.0000000000000D+00
   329  3.2800000000000D+00  0.0000000000000D+00  0.0000000000000D+00
   330  3.2900000000000D+00  0.0000000000000D+00  0.0000000000000D+00
   331  3.3000000000000D+00  0.0000000000000D+00  0.0000000000000D+00
   332  3.3100000000000D+00  0.0000000000000D+00  0.0000000000000D+00
   333  3.3200000000000D+00  0.0000000000000D+00  0.0000000000000D+00
   334  3.3300000000000D+00  0.0000000000000D+00  0.0000000000000D+00
   335  3.3400000000000D+00  0.0000000000000D+00  0.0000000000000D+00
   336  3.3500000000000D+00  0.0000000000000D+00  0.0000000000000D+00
   337  3.3600000000000D+00  0.0000000000000D+00  0.0000000000000D+00
   338  3.3700000000000D+00  0.0000000000000D+00  0.0000000000000D+00
   339  3.3800000000000D+00  0.0000000000000D+00  0.0000000000000D+00
   340  3.3900000000000D+00  0.0000000000000D+00  0.0000000000000D+00
   341  3.4000000000000D+00  0.0000000000000D+00  0.0000000000000D+00
   342  3.4100000000000D+00  0.0000000000000D+00  0.0000000000000D+00
   343  3.4200000000000D+00  0.0000000000000D+00  0.0000000000000D+00
   344  3.4300000000000D+00  0.0000000000000D+00  0.0000000000000D+00
   345  3.4400000000000D+00  0.0000000000000D+00  0.0000000000000D+00
   346  3.4500000000000D+00  0.0000000000000D+00  0.0000000000000D+00
   347  3.4600000000000D+00  0.0000000000000D+00  0.0000000000000D+00
   348  3.4700000000000D+00  0.0000000000000D+00  0.0000000000000D+00
   349  3.4800000000000D+00  0.0000000000000D+00  0.0000000000000D+00
   350  3.4900000000000D+00  0.0000000000000D+00  0.0000000000000D+00
   351  3.5000000000000D+00  0.0000000000000D+00  0.0000000000000D+00
   352  3.5100000000000D+00  0.0000000000000D+00  0.0000000000000D+00
   353  3.5200000000000D+00  0.0000000000000D+00  0.0000000000000D+00
   354  3.5300000000000D+00  0.0000000000000D+00  0.0000000000000D+00
   355  3.5400000000000D+00  0.0000000000000D+00  0.0000000000000D+00
   356  3.5500000000000D+00  0.0000000000000D+00  0.0000000000000D+00
   357  3.5600000000000D+00  0.0000000000000D+00  0.0000000000000D+00
   358  3.5700000000000D+00  0.0000000000000D+00  0.0000000000000D+00
   359  3.5800000000000D+00  0.0000000000000D+00  0.0000000000000D+00
   360  3.5900000000000D+00  0.0000000000000D+00  0.0000000000000D+00
   361  3.6000000000000D+00  0.0000000000000D+00  0.0000000000000D+00
   362  3.6100000000000D+00  0.0000000000000D+00  0.0000000000000D+00
   363  3.6200000000000D+00  0.0000000000000D+00  0.0000000000000D+00
   364  3.6300000000000D+00  0.0000000000000D+00  0.0000000000000D+00
   365  3.6400000000000D+00  0.0000000000000D+00  0.0000000000000D+00
   366  3.6500000000000D+00  0.0000000000000D+00  0.0000000000000D+00
   367  3.6600000000000D+00  0.0000000000000D+00  0.0000000000000D+00
   368  3.6700000000000D+00  0.0000000000000D+00  0.0000000000000D+00
   369  3.6800000000000D+00  0.0000000000000D+00  0.0000000000000D+00
   370  3.6900000000000D+00  0.0000000000000D+00  0.0000000000000D+00
   371  3.7000000000000D+00  0.0000000000000D+00  0.0000000000000D+00
   372  3.7100000000000D+00  0.0000000000000D+00  0.0000000000000D+00
   373  3.7200000000000D+00  0.0000000000000D+00  0.0000000000000D+00
   374  3.7300000000000D+00  0.0000000000000D+00  0.0000000000000D+00
   375  3.7400000000000D+00  0.0000000000000D+00  0.0000000000000D+00
   376  3.7500000000000D+00  0.0000000000000D+00  0.0000000000000D+00
   377  3.7600000000000D+00  0.0000000000000D+00  0.0000000000000D+00
   378  3.7700000000000D+00  0.0000000000000D+00  0.0000000000000D+00
   379  3.7800000000000D+00  0.0000000000000D+00  0.0000000000000D+00
   380  3.7900000000000D+00  0.0000000000000D+00  0.0000000000000D+00
   381  3.8000000000000D+00  0.0000000000000D+00  0.0000000000000D+00
   382  3.8100000000000D+00  0.0000000000000D+00  0.0000000000000D+00
   383  3.8200000000000D+00  0.0000000000000D+00  0.0000000000000D+00
   384  3.8300000000000D+00  0.0000000000000D+00  0.0000000000000D+00
   385  3.8400000000000D+00  0.0000000000000D+00  0.0000000000000D+00
   386  3.8500000000000D+00  0.0000000000000D+00  0.0000000000000D+00
   387  3.8600000000000D+00  0.0000000000000D+00  0.0000000000000D+00
   388  3.8700000000000D+00  0.0000000000000D+00  0.0000000000000D+00
   389  3.8800000000000D+00  0.0000000000000D+00  0.0000000000000D+00
   390  3.8900000000000D+00  0.0000000000000D+00  0.0000000000000D+00
   391  3.9000000000000D+00  0.0000000000000D+00  0.0000000000000D+00
   392  3.9100000000000D+00  0.0000000000000D+00  0.0000000000000D+00
   393  3.9200000000000D+00  0.0000000000000D+00  0.0000000000000D+00
   394  3.9300000000000D+00  0.0000000000000D+00  0.0000000000000D+00
   395  3.9400000000000D+00  0.0000000000000D+00  0.0000000000000D+00
   396  3.9500000000000D+00  0.0000000000000D+00  0.0000000000000D+00
   397  3.9600000000000D+00  0.0000000000000D+00  0.0000000000000D+00
   398  3.9700000000000D+00  0.0000000000000D+00  0.0000000000000D+00
   399  3.9800000000000D+00  0.0000000000000D+00  0.0000000000000D+00
   400  3.9900000000000D+00  0.0000000000000D+00  0.0000000000000D+00
   401  4.0000000000000D+00  0.0000000000000D+00  0.0000000000000D+00
   402  4.0100000000000D+00  0.0000000000000D+00  0.0000000000000D+00
   403  4.0200000000000D+00  0.0000000000000D+00  0.0000000000000D+00
   404  4.0300000000000D+00  0.0000000000000D+00  0.0000000000000D+00
   405  4.0400000000000D+00  0.0000000000000D+00  0.0000000000000D+00
   406  4.0500000000000D+00  0.0000000000000D+00  0.0000000000000D+00
   407  4.0600000000000D+00  0.0000000000000D+00  0.0000000000000D+00
   408  4.0700000000000D+00  0.0000000000000D+00  0.0000000000000D+00
   409  4.0800000000000D+00  0.0000000000000D+00  0.0000000000000D+00
   410  4.0900000000000D+00  0.0000000000000D+00  0.0000000000000D+00
   411  4.1000000000000D+00  0.0000000000000D+00  0.0000000000000D+00
   412  4.1100000000000D+00  0.0000000000000D+00  0.0000000000000D+00
   413  4.1200000000000D+00  0.0000000000000D+00  0.0000000000000D+00
   414  4.1300000000000D+00  0.0000000000000D+00  0.0000000000000D+00
   415  4.1400000000000D+00  0.0000000000000D+00  0.0000000000000D+00
   416  4.1500000000000D+00  0.0000000000000D+00  0.0000000000000D+00
   417  4.1600000000000D+00  0.0000000000000D+00  0.0000000000000D+00
   418  4.1700000000000D+00  0.0000000000000D+00  0.0000000000000D+00
   419  4.1800000000000D+00  0.0000000000000D+00  0.0000000000000D+00
   420  4.1900000000000D+00  0.0000000000000D+00  0.0000000000000D+00
   421  4.2000000000000D+00  0.0000000000000D+00  0.0000000000000D+00
   422  4.2100000000000D+00  0.0000000000000D+00  0.0000000000000D+00