Ir    ONCVPSP-3.3.0  r_core=   1.60470   1.60470   1.51179   2.26792
     77.0000     17.0000      220117    zatom,zion,pspd
     8      11   3     4   500     0    pspcod,pspxc,lmax,lloc,mmax,r2well
  4.99000000  0.00000000  0.00000000    rchrg fchrg qchrg
     2     2     2     2     0    nproj
     1     1           extension_switch
   0                         8.9911624112461D+01  2.8058099242412D+00
     1  0.0000000000000D+00 -3.6947922499309D-10  4.6495321828766D-10
     2  1.0000000000000D-02  7.8909168130871D-02 -3.6503173851300D-04
     3  2.0000000000000D-02  1.5758965220427D-01 -6.0572480709897D-04
     4  3.0000000000000D-02  2.3581381912756D-01 -5.9875909233255D-04
     5  4.0000000000000D-02  3.1335612916306D-01 -2.2284122313661D-04
     6  5.0000000000000D-02  3.8999416126376D-01  6.4030786500986D-04
     7  6.0000000000000D-02  4.6550961306424D-01  2.1049960005289D-03
     8  7.0000000000000D-02  5.3968926751716D-01  4.2806431403896D-03
     9  8.0000000000000D-02  6.1232591853517D-01  7.2709142235131D-03
    10  9.0000000000000D-02  6.8321924845202D-01  1.1172910136518D-02
    11  1.0000000000000D-01  7.5217665064889D-01  1.6076424744910D-02
    12  1.1000000000000D-01  8.1901399129777D-01  2.2063275180671D-02
    13  1.2000000000000D-01  8.8355630484441D-01  2.9206711732329D-02
    14  1.3000000000000D-01  9.4563841858239D-01  3.7570912765530D-02
    15  1.4000000000000D-01  1.0051055024478D+00  4.7210569122096D-02
    16  1.5000000000000D-01  1.0618135409824D+00  5.8170561414390D-02
    17  1.6000000000000D-01  1.1156297252613D+00  7.0485732562040D-02
    18  1.7000000000000D-01  1.1664327634515D+00  8.4180756822214D-02
    19  1.8000000000000D-01  1.2141131095449D+00  9.9270105455267D-02
    20  1.9000000000000D-01  1.2585731106908D+00  1.1575810805831D-01
    21  2.0000000000000D-01  1.2997270744198D+00  1.3363910750279D-01
    22  2.1000000000000D-01  1.3375012578973D+00  1.5289770534196D-01
    23  2.2000000000000D-01  1.3718337821639D+00  1.7350909352271D-01
    24  2.3000000000000D-01  1.4026744750905D+00  1.9543946725605D-01
    25  2.4000000000000D-01  1.4299846475046D+00  2.1864651298399D-01
    26  2.5000000000000D-01  1.4537368076039D+00  2.4307996453767D-01
    27  2.6000000000000D-01  1.4739143193774D+00  2.6868221982444D-01
    28  2.7000000000000D-01  1.4905110112690D+00  2.9538900971768D-01
    29  2.8000000000000D-01  1.5035307417658D+00  3.2313011026255D-01
    30  2.9000000000000D-01  1.5129869289448D+00  3.5183008885987D-01
    31  3.0000000000000D-01  1.5189020512715D+00  3.8140907475471D-01
    32  3.1000000000000D-01  1.5213071271168D+00  4.1178354394157D-01
    33  3.2000000000000D-01  1.5202411805222D+00  4.4286710850636D-01
    34  3.3000000000000D-01  1.5157507007182D+00  4.7457130045964D-01
    35  3.4000000000000D-01  1.5078891027722D+00  5.0680634027413D-01
    36  3.5000000000000D-01  1.4967161965169D+00  5.3948188062398D-01
    37  3.6000000000000D-01  1.4822976705905D+00  5.7250771622775D-01
    38  3.7000000000000D-01  1.4647045980087D+00  6.0579445121912D-01
    39  3.8000000000000D-01  1.4440129691924D+00  6.3925411610392D-01
    40  3.9000000000000D-01  1.4203032577938D+00  6.7280072709848D-01
    41  4.0000000000000D-01  1.3936600240160D+00  7.0635078147966D-01
    42  4.1000000000000D-01  1.3641715594001D+00  7.3982368349522D-01
    43  4.2000000000000D-01  1.3319295762836D+00  7.7314209637909D-01
    44  4.3000000000000D-01  1.2970289443108D+00  8.0623221707340D-01
    45  4.4000000000000D-01  1.2595674755205D+00  8.3902397136805D-01
    46  4.5000000000000D-01  1.2196457586536D+00  8.7145112831315D-01
    47  4.6000000000000D-01  1.1773670424254D+00  9.0345133392748D-01
    48  4.7000000000000D-01  1.1328371666122D+00  9.3496606540123D-01
    49  4.8000000000000D-01  1.0861645389092D+00  9.6594050815932D-01
    50  4.9000000000000D-01  1.0374601546548D+00  9.9632335929735D-01
    51  5.0000000000000D-01  9.8683765567824D-01  1.0260665620108D+00
    52  5.1000000000000D-01  9.3441342374605D-01  1.0551249766941D+00
    53  5.2000000000000D-01  8.8030670334853D-01  1.0834559953780D+00
    54  5.3000000000000D-01  8.2463974790633D-01  1.1110191070803D+00
    55  5.4000000000000D-01  7.6753798289291D-01  1.1377754224681D+00
    56  5.5000000000000D-01  7.0913017886952D-01  1.1636871669358D+00
    57  5.6000000000000D-01  6.4954862702742D-01  1.1887171518070D+00
    58  5.7000000000000D-01  5.8892930953136D-01  1.2128282338350D+00
    59  5.8000000000000D-01  5.2741205676648D-01  1.2359827735214D+00
    60  5.9000000000000D-01  4.6514068351209D-01  1.2581421029674D+00
    61  6.0000000000000D-01  4.0226309610349D-01  1.2792660140334D+00
    62  6.1000000000000D-01  3.3893136279949D-01  1.2993122774848D+00
    63  6.2000000000000D-01  2.7530173984787D-01  1.3182362035684D+00
    64  6.3000000000000D-01  2.1153464613566D-01  1.3359902540689D+00
    65  6.4000000000000D-01  1.4779457981766D-01  1.3525237153651D+00
    66  6.5000000000000D-01  8.4249970937422D-02  1.3677824413279D+00
    67  6.6000000000000D-01  2.1072964781806D-02  1.3817086740887D+00
    68  6.7000000000000D-01 -4.1560868470147D-02  1.3942409497750D+00
    69  6.8000000000000D-01 -1.0347290132483D-01  1.4053140952452D+00
    70  6.9000000000000D-01 -1.6448189630742D-01  1.4148593206984D+00
    71  7.0000000000000D-01 -2.2440453451474D-01  1.4228044117738D+00
    72  7.1000000000000D-01 -2.8305602573591D-01  1.4290740234267D+00
    73  7.2000000000000D-01 -3.4025079931816D-01  1.4335900764605D+00
    74  7.3000000000000D-01 -3.9580327376602D-01  1.4362722561541D+00
    75  7.4000000000000D-01 -4.4952870185189D-01  1.4370386109497D+00
    76  7.5000000000000D-01 -5.0124408680485D-01  1.4358062476748D+00
    77  7.6000000000000D-01 -5.5076916395614D-01  1.4324921183050D+00
    78  7.7000000000000D-01 -5.9792744105227D-01  1.4270138918107D+00
    79  7.8000000000000D-01 -6.4254728933497D-01  1.4192909032354D+00
    80  7.9000000000000D-01 -6.8446307643428D-01  1.4092451708083D+00
    81  8.0000000000000D-01 -7.2351633114600D-01  1.3968024706401D+00
    82  8.1000000000000D-01 -7.5955692928191D-01  1.3818934573928D+00
    83  8.2000000000000D-01 -7.9244428900365D-01  1.3644548182775D+00
    84  8.3000000000000D-01 -8.2204856339170D-01  1.3444304468306D+00
    85  8.4000000000000D-01 -8.4825181747100D-01  1.3217726221617D+00
    86  8.5000000000000D-01 -8.7094917652426D-01  1.2964431787713D+00
    87  8.6000000000000D-01 -8.9004993228131D-01  1.2684146516123D+00
    88  8.7000000000000D-01 -9.0547859348549D-01  1.2376713808275D+00
    89  8.8000000000000D-01 -9.1717586741047D-01  1.2042105605405D+00
    90  8.9000000000000D-01 -9.2509955913657D-01  1.1680432162146D+00
    91  9.0000000000000D-01 -9.2922537579655D-01  1.1291950954287D+00
    92  9.1000000000000D-01 -9.2954762356531D-01  1.0877074574499D+00
    93  9.2000000000000D-01 -9.2607978589418D-01  1.0436377477042D+00
    94  9.3000000000000D-01 -9.1885497237350D-01  9.9706014415822D-01
    95  9.4000000000000D-01 -9.0792622864045D-01  9.4806596372193D-01
    96  9.5000000000000D-01 -8.9336669892352D-01  8.9676391804593D-01
    97  9.6000000000000D-01 -8.7526963411836D-01  8.4328020951342D-01
    98  9.7000000000000D-01 -8.5374823972613D-01  7.8775845981513D-01
    99  9.8000000000000D-01 -8.2893535949329D-01  7.3035946517779D-01
   100  9.9000000000000D-01 -8.0098299222046D-01  6.7126077414758D-01
   101  1.0000000000000D+00 -7.7006164090780D-01  6.1065608575498D-01
   102  1.0100000000000D+00 -7.3635949513141D-01  5.4875446785357D-01
   103  1.0200000000000D+00 -7.0008144933147D-01  4.8577939747104D-01
   104  1.0300000000000D+00 -6.6144796147469D-01  4.2196762706022D-01
   105  1.0400000000000D+00 -6.2069375840092D-01  3.5756788267491D-01
   106  1.0500000000000D+00 -5.7806639577278D-01  2.9283940196334D-01
   107  1.0600000000000D+00 -5.3382468244947D-01  2.2805032209121D-01
   108  1.0700000000000D+00 -4.8823698062073D-01  1.6347592948390D-01
   109  1.0800000000000D+00 -4.4157939462353D-01  9.9396785145827D-02
   110  1.0900000000000D+00 -3.9413386286924D-01  3.6096741100373D-02
   111  1.1000000000000D+00 -3.4618616845588D-01 -2.6139135140655D-02
   112  1.1100000000000D+00 -2.9802388543763D-01 -8.7026709489974D-02
   113  1.1200000000000D+00 -2.4993427858007D-01 -1.4628498395037D-01
   114  1.1300000000000D+00 -2.0220217532854D-01 -2.0363833229541D-01
   115  1.1400000000000D+00 -1.5510782929580D-01 -2.5881874730182D-01
   116  1.1500000000000D+00 -1.0892479511717D-01 -3.1156807736954D-01
   117  1.1600000000000D+00 -6.3917834719081D-02 -3.6164023006714D-01
   118  1.1700000000000D+00 -2.0340874995211D-02 -4.0880332012706D-01
   119  1.1800000000000D+00  2.1564963182943D-02 -4.5284173943866D-01
   120  1.1900000000000D+00  6.1573245149867D-02 -4.9355812702528D-01
   121  1.2000000000000D+00  9.9473993047683D-02 -5.3077521773441D-01
   122  1.2100000000000D+00  1.3507532900652D-01 -5.6433754938597D-01
   123  1.2200000000000D+00  1.6820497363056D-01 -5.9411300873053D-01
   124  1.2300000000000D+00  1.9871158438624D-01 -6.1999419864197D-01
   125  1.2400000000000D+00  2.2646592000356D-01 -6.4189961067649D-01
   126  1.2500000000000D+00  2.5136181747612D-01 -6.5977458764842D-01
   127  1.2600000000000D+00  2.7331697143463D-01 -6.7359206447070D-01
   128  1.2700000000000D+00  2.9227350737922D-01 -6.8335307746215D-01
   129  1.2800000000000D+00  3.0819834085840D-01 -6.8908703299709D-01
   130  1.2900000000000D+00  3.2108331856325D-01 -6.9085173079089D-01
   131  1.3000000000000D+00  3.3094513955368D-01 -6.8873313969975D-01
   132  1.3100000000000D+00  3.3782505472624D-01 -6.8284492377813D-01
   133  1.3200000000000D+00  3.4178834786999D-01 -6.7332772233930D-01
   134  1.3300000000000D+00  3.4292360339031D-01 -6.6034818977125D-01
   135  1.3400000000000D+00  3.4134176499419D-01 -6.4409779994090D-01
   136  1.3500000000000D+00  3.3717499691620D-01 -6.2479142841299D-01
   137  1.3600000000000D+00  3.3057535778430D-01 -6.0266572401352D-01
   138  1.3700000000000D+00  3.2171329929151D-01 -5.7797728363960D-01
   139  1.3800000000000D+00  3.1077600722288D-01 -5.5100065044773D-01
   140  1.3900000000000D+00  2.9796559941303D-01 -5.2202615211133D-01
   141  1.4000000000000D+00  2.8349720055197D-01 -4.9135760201757D-01
   142  1.4100000000000D+00  2.6759691430499D-01 -4.5930988691890D-01
   143  1.4200000000000D+00  2.5049971232784D-01 -4.2620646351957D-01
   144  1.4300000000000D+00  2.3244726482165D-01 -3.9237679236105D-01
   145  1.4400000000000D+00  2.1368573390473D-01 -3.5815373345836D-01
   146  1.4500000000000D+00  1.9446355491536D-01 -3.2387093259802D-01
   147  1.4600000000000D+00  1.7502923085429D-01 -2.8986022759268D-01
   148  1.4700000000000D+00  1.5562915933723D-01 -2.5644909599388D-01
   149  1.4800000000000D+00  1.3650553417287D-01 -2.2395819502160D-01
   150  1.4900000000000D+00  1.1789423647081D-01 -1.9269888298621D-01
   151  1.5000000000000D+00  1.0002277056033D-01 -1.6297078566440D-01
   152  1.5100000000000D+00  8.3109629678880D-02 -1.3506119032910D-01
   153  1.5200000000000D+00  6.7360637104024D-02 -1.0924053665448D-01
   154  1.5300000000000D+00  5.2963887029784D-02 -8.5756079160080D-02
   155  1.5400000000000D+00  4.0085444988974D-02 -6.4826583514899D-02
   156  1.5500000000000D+00  2.8866254815229D-02 -4.6639236351850D-02
   157  1.5600000000000D+00  1.9419014795620D-02 -3.1344927346770D-02
   158  1.5700000000000D+00  1.1788592311845D-02 -1.8995309196991D-02
   159  1.5800000000000D+00  6.0700759300303D-03 -9.7320940701501D-03
   160  1.5900000000000D+00  2.4464934933803D-03 -3.8436101200029D-03
   161  1.6000000000000D+00  6.8197279680672D-04 -9.6963602710552D-04
   162  1.6100000000000D+00  6.7726899095388D-05 -1.1188800427371D-05
   163  1.6200000000000D+00 -1.8684141953359D-05  5.5087510812785D-05
   164  1.6300000000000D+00  1.8105998919416D-05 -4.2585461060227D-05
   165  1.6400000000000D+00  1.1037043836728D-05 -2.3993657824395D-05
   166  1.6500000000000D+00 -2.1790648241529D-06  6.4256899060544D-06
   167  1.6600000000000D+00 -1.2941807634557D-06  3.4653866392389D-06
   168  1.6700000000000D+00 -7.8705355801956D-07  9.3950197638902D-07
   169  1.6800000000000D+00 -3.8067240464293D-07  4.5440678448709D-07
   170  1.6900000000000D+00  0.0000000000000D+00  0.0000000000000D+00
   171  1.7000000000000D+00  0.0000000000000D+00  0.0000000000000D+00
   172  1.7100000000000D+00  0.0000000000000D+00  0.0000000000000D+00
   173  1.7200000000000D+00  0.0000000000000D+00  0.0000000000000D+00
   174  1.7300000000000D+00  0.0000000000000D+00  0.0000000000000D+00
   175  1.7400000000000D+00  0.0000000000000D+00  0.0000000000000D+00
   176  1.7500000000000D+00  0.0000000000000D+00  0.0000000000000D+00
   177  1.7600000000000D+00  0.0000000000000D+00  0.0000000000000D+00
   178  1.7700000000000D+00  0.0000000000000D+00  0.0000000000000D+00
   179  1.7800000000000D+00  0.0000000000000D+00  0.0000000000000D+00
   180  1.7900000000000D+00  0.0000000000000D+00  0.0000000000000D+00
   181  1.8000000000000D+00  0.0000000000000D+00  0.0000000000000D+00
   182  1.8100000000000D+00  0.0000000000000D+00  0.0000000000000D+00
   183  1.8200000000000D+00  0.0000000000000D+00  0.0000000000000D+00
   184  1.8300000000000D+00  0.0000000000000D+00  0.0000000000000D+00
   185  1.8400000000000D+00  0.0000000000000D+00  0.0000000000000D+00
   186  1.8500000000000D+00  0.0000000000000D+00  0.0000000000000D+00
   187  1.8600000000000D+00  0.0000000000000D+00  0.0000000000000D+00
   188  1.8700000000000D+00  0.0000000000000D+00  0.0000000000000D+00
   189  1.8800000000000D+00  0.0000000000000D+00  0.0000000000000D+00
   190  1.8900000000000D+00  0.0000000000000D+00  0.0000000000000D+00
   191  1.9000000000000D+00  0.0000000000000D+00  0.0000000000000D+00
   192  1.9100000000000D+00  0.0000000000000D+00  0.0000000000000D+00
   193  1.9200000000000D+00  0.0000000000000D+00  0.0000000000000D+00
   194  1.9300000000000D+00  0.0000000000000D+00  0.0000000000000D+00
   195  1.9400000000000D+00  0.0000000000000D+00  0.0000000000000D+00
   196  1.9500000000000D+00  0.0000000000000D+00  0.0000000000000D+00
   197  1.9600000000000D+00  0.0000000000000D+00  0.0000000000000D+00
   198  1.9700000000000D+00  0.0000000000000D+00  0.0000000000000D+00
   199  1.9800000000000D+00  0.0000000000000D+00  0.0000000000000D+00
   200  1.9900000000000D+00  0.0000000000000D+00  0.0000000000000D+00
   201  2.0000000000000D+00  0.0000000000000D+00  0.0000000000000D+00
   202  2.0100000000000D+00  0.0000000000000D+00  0.0000000000000D+00
   203  2.0200000000000D+00  0.0000000000000D+00  0.0000000000000D+00
   204  2.0300000000000D+00  0.0000000000000D+00  0.0000000000000D+00
   205  2.0400000000000D+00  0.0000000000000D+00  0.0000000000000D+00
   206  2.0500000000000D+00  0.0000000000000D+00  0.0000000000000D+00
   207  2.0600000000000D+00  0.0000000000000D+00  0.0000000000000D+00
   208  2.0700000000000D+00  0.0000000000000D+00  0.0000000000000D+00
   209  2.0800000000000D+00  0.0000000000000D+00  0.0000000000000D+00
   210  2.0900000000000D+00  0.0000000000000D+00  0.0000000000000D+00
   211  2.1000000000000D+00  0.0000000000000D+00  0.0000000000000D+00
   212  2.1100000000000D+00  0.0000000000000D+00  0.0000000000000D+00
   213  2.1200000000000D+00  0.0000000000000D+00  0.0000000000000D+00
   214  2.1300000000000D+00  0.0000000000000D+00  0.0000000000000D+00
   215  2.1400000000000D+00  0.0000000000000D+00  0.0000000000000D+00
   216  2.1500000000000D+00  0.0000000000000D+00  0.0000000000000D+00
   217  2.1600000000000D+00  0.0000000000000D+00  0.0000000000000D+00
   218  2.1700000000000D+00  0.0000000000000D+00  0.0000000000000D+00
   219  2.1800000000000D+00  0.0000000000000D+00  0.0000000000000D+00
   220  2.1900000000000D+00  0.0000000000000D+00  0.0000000000000D+00
   221  2.2000000000000D+00  0.0000000000000D+00  0.0000000000000D+00
   222  2.2100000000000D+00  0.0000000000000D+00  0.0000000000000D+00
   223  2.2200000000000D+00  0.0000000000000D+00  0.0000000000000D+00
   224  2.2300000000000D+00  0.0000000000000D+00  0.0000000000000D+00
   225  2.2400000000000D+00  0.0000000000000D+00  0.0000000000000D+00
   226  2.2500000000000D+00  0.0000000000000D+00  0.0000000000000D+00
   227  2.2600000000000D+00  0.0000000000000D+00  0.0000000000000D+00
   228  2.2700000000000D+00  0.0000000000000D+00  0.0000000000000D+00
   229  2.2800000000000D+00  0.0000000000000D+00  0.0000000000000D+00
   230  2.2900000000000D+00  0.0000000000000D+00  0.0000000000000D+00
   231  2.3000000000000D+00  0.0000000000000D+00  0.0000000000000D+00
   232  2.3100000000000D+00  0.0000000000000D+00  0.0000000000000D+00
   233  2.3200000000000D+00  0.0000000000000D+00  0.0000000000000D+00
   234  2.3300000000000D+00  0.0000000000000D+00  0.0000000000000D+00
   235  2.3400000000000D+00  0.0000000000000D+00  0.0000000000000D+00
   236  2.3500000000000D+00  0.0000000000000D+00  0.0000000000000D+00
   237  2.3600000000000D+00  0.0000000000000D+00  0.0000000000000D+00
   238  2.3700000000000D+00  0.0000000000000D+00  0.0000000000000D+00
   239  2.3800000000000D+00  0.0000000000000D+00  0.0000000000000D+00
   240  2.3900000000000D+00  0.0000000000000D+00  0.0000000000000D+00
   241  2.4000000000000D+00  0.0000000000000D+00  0.0000000000000D+00
   242  2.4100000000000D+00  0.0000000000000D+00  0.0000000000000D+00
   243  2.4200000000000D+00  0.0000000000000D+00  0.0000000000000D+00
   244  2.4300000000000D+00  0.0000000000000D+00  0.0000000000000D+00
   245  2.4400000000000D+00  0.0000000000000D+00  0.0000000000000D+00
   246  2.4500000000000D+00  0.0000000000000D+00  0.0000000000000D+00
   247  2.4600000000000D+00  0.0000000000000D+00  0.0000000000000D+00
   248  2.4700000000000D+00  0.0000000000000D+00  0.0000000000000D+00
   249  2.4800000000000D+00  0.0000000000000D+00  0.0000000000000D+00
   250  2.4900000000000D+00  0.0000000000000D+00  0.0000000000000D+00
   251  2.5000000000000D+00  0.0000000000000D+00  0.0000000000000D+00
   252  2.5100000000000D+00  0.0000000000000D+00  0.0000000000000D+00
   253  2.5200000000000D+00  0.0000000000000D+00  0.0000000000000D+00
   254  2.5300000000000D+00  0.0000000000000D+00  0.0000000000000D+00
   255  2.5400000000000D+00  0.0000000000000D+00  0.0000000000000D+00
   256  2.5500000000000D+00  0.0000000000000D+00  0.0000000000000D+00
   257  2.5600000000000D+00  0.0000000000000D+00  0.0000000000000D+00
   258  2.5700000000000D+00  0.0000000000000D+00  0.0000000000000D+00
   259  2.5800000000000D+00  0.0000000000000D+00  0.0000000000000D+00
   260  2.5900000000000D+00  0.0000000000000D+00  0.0000000000000D+00
   261  2.6000000000000D+00  0.0000000000000D+00  0.0000000000000D+00
   262  2.6100000000000D+00  0.0000000000000D+00  0.0000000000000D+00
   263  2.6200000000000D+00  0.0000000000000D+00  0.0000000000000D+00
   264  2.6300000000000D+00  0.0000000000000D+00  0.0000000000000D+00
   265  2.6400000000000D+00  0.0000000000000D+00  0.0000000000000D+00
   266  2.6500000000000D+00  0.0000000000000D+00  0.0000000000000D+00
   267  2.6600000000000D+00  0.0000000000000D+00  0.0000000000000D+00
   268  2.6700000000000D+00  0.0000000000000D+00  0.0000000000000D+00
   269  2.6800000000000D+00  0.0000000000000D+00  0.0000000000000D+00
   270  2.6900000000000D+00  0.0000000000000D+00  0.0000000000000D+00
   271  2.7000000000000D+00  0.0000000000000D+00  0.0000000000000D+00
   272  2.7100000000000D+00  0.0000000000000D+00  0.0000000000000D+00
   273  2.7200000000000D+00  0.0000000000000D+00  0.0000000000000D+00
   274  2.7300000000000D+00  0.0000000000000D+00  0.0000000000000D+00
   275  2.7400000000000D+00  0.0000000000000D+00  0.0000000000000D+00
   276  2.7500000000000D+00  0.0000000000000D+00  0.0000000000000D+00
   277  2.7600000000000D+00  0.0000000000000D+00  0.0000000000000D+00
   278  2.7700000000000D+00  0.0000000000000D+00  0.0000000000000D+00
   279  2.7800000000000D+00  0.0000000000000D+00  0.0000000000000D+00
   280  2.7900000000000D+00  0.0000000000000D+00  0.0000000000000D+00
   281  2.8000000000000D+00  0.0000000000000D+00  0.0000000000000D+00
   282  2.8100000000000D+00  0.0000000000000D+00  0.0000000000000D+00
   283  2.8200000000000D+00  0.0000000000000D+00  0.0000000000000D+00
   284  2.8300000000000D+00  0.0000000000000D+00  0.0000000000000D+00
   285  2.8400000000000D+00  0.0000000000000D+00  0.0000000000000D+00
   286  2.8500000000000D+00  0.0000000000000D+00  0.0000000000000D+00
   287  2.8600000000000D+00  0.0000000000000D+00  0.0000000000000D+00
   288  2.8700000000000D+00  0.0000000000000D+00  0.0000000000000D+00
   289  2.8800000000000D+00  0.0000000000000D+00  0.0000000000000D+00
   290  2.8900000000000D+00  0.0000000000000D+00  0.0000000000000D+00
   291  2.9000000000000D+00  0.0000000000000D+00  0.0000000000000D+00
   292  2.9100000000000D+00  0.0000000000000D+00  0.0000000000000D+00
   293  2.9200000000000D+00  0.0000000000000D+00  0.0000000000000D+00
   294  2.9300000000000D+00  0.0000000000000D+00  0.0000000000000D+00
   295  2.9400000000000D+00  0.0000000000000D+00  0.0000000000000D+00
   296  2.9500000000000D+00  0.0000000000000D+00  0.0000000000000D+00
   297  2.9600000000000D+00  0.0000000000000D+00  0.0000000000000D+00
   298  2.9700000000000D+00  0.0000000000000D+00  0.0000000000000D+00
   299  2.9800000000000D+00  0.0000000000000D+00  0.0000000000000D+00
   300  2.9900000000000D+00  0.0000000000000D+00  0.0000000000000D+00
   301  3.0000000000000D+00  0.0000000000000D+00  0.0000000000000D+00
   302  3.0100000000000D+00  0.0000000000000D+00  0.0000000000000D+00
   303  3.0200000000000D+00  0.0000000000000D+00  0.0000000000000D+00
   304  3.0300000000000D+00  0.0000000000000D+00  0.0000000000000D+00
   305  3.0400000000000D+00  0.0000000000000D+00  0.0000000000000D+00
   306  3.0500000000000D+00  0.0000000000000D+00  0.0000000000000D+00
   307  3.0600000000000D+00  0.0000000000000D+00  0.0000000000000D+00
   308  3.0700000000000D+00  0.0000000000000D+00  0.0000000000000D+00
   309  3.0800000000000D+00  0.0000000000000D+00  0.0000000000000D+00
   310  3.0900000000000D+00  0.0000000000000D+00  0.0000000000000D+00
   311  3.1000000000000D+00  0.0000000000000D+00  0.0000000000000D+00
   312  3.1100000000000D+00  0.0000000000000D+00  0.0000000000000D+00
   313  3.1200000000000D+00  0.0000000000000D+00  0.0000000000000D+00
   314  3.1300000000000D+00  0.0000000000000D+00  0.0000000000000D+00
   315  3.1400000000000D+00  0.0000000000000D+00  0.0000000000000D+00
   316  3.1500000000000D+00  0.0000000000000D+00  0.0000000000000D+00
   317  3.1600000000000D+00  0.0000000000000D+00  0.0000000000000D+00
   318  3.1700000000000D+00  0.0000000000000D+00  0.0000000000000D+00
   319  3.1800000000000D+00  0.0000000000000D+00  0.0000000000000D+00
   320  3.1900000000000D+00  0.0000000000000D+00  0.0000000000000D+00
   321  3.2000000000000D+00  0.0000000000000D+00  0.0000000000000D+00
   322  3.2100000000000D+00  0.0000000000000D+00  0.0000000000000D+00
   323  3.2200000000000D+00  0.0000000000000D+00  0.0000000000000D+00
   324  3.2300000000000D+00  0.0000000000000D+00  0.0000000000000D+00
   325  3.2400000000000D+00  0.0000000000000D+00  0.0000000000000D+00
   326  3.2500000000000D+00  0.0000000000000D+00  0.0000000000000D+00
   327  3.2600000000000D+00  0.0000000000000D+00  0.0000000000000D+00
   328  3.2700000000000D+00  0.0000000000000D+00  0.0000000000000D+00
   329  3.2800000000000D+00  0.0000000000000D+00  0.0000000000000D+00
   330  3.2900000000000D+00  0.0000000000000D+00  0.0000000000000D+00
   331  3.3000000000000D+00  0.0000000000000D+00  0.0000000000000D+00
   332  3.3100000000000D+00  0.0000000000000D+00  0.0000000000000D+00
   333  3.3200000000000D+00  0.0000000000000D+00  0.0000000000000D+00
   334  3.3300000000000D+00  0.0000000000000D+00  0.0000000000000D+00
   335  3.3400000000000D+00  0.0000000000000D+00  0.0000000000000D+00
   336  3.3500000000000D+00  0.0000000000000D+00  0.0000000000000D+00
   337  3.3600000000000D+00  0.0000000000000D+00  0.0000000000000D+00
   338  3.3700000000000D+00  0.0000000000000D+00  0.0000000000000D+00
   339  3.3800000000000D+00  0.0000000000000D+00  0.0000000000000D+00
   340  3.3900000000000D+00  0.0000000000000D+00  0.0000000000000D+00
   341  3.4000000000000D+00  0.0000000000000D+00  0.0000000000000D+00
   342  3.4100000000000D+00  0.0000000000000D+00  0.0000000000000D+00
   343  3.4200000000000D+00  0.0000000000000D+00  0.0000000000000D+00
   344  3.4300000000000D+00  0.0000000000000D+00  0.0000000000000D+00
   345  3.4400000000000D+00  0.0000000000000D+00  0.0000000000000D+00
   346  3.4500000000000D+00  0.0000000000000D+00  0.0000000000000D+00
   347  3.4600000000000D+00  0.0000000000000D+00  0.0000000000000D+00
   348  3.4700000000000D+00  0.0000000000000D+00  0.0000000000000D+00
   349  3.4800000000000D+00  0.0000000000000D+00  0.0000000000000D+00
   350  3.4900000000000D+00  0.0000000000000D+00  0.0000000000000D+00
   351  3.5000000000000D+00  0.0000000000000D+00  0.0000000000000D+00
   352  3.5100000000000D+00  0.0000000000000D+00  0.0000000000000D+00
   353  3.5200000000000D+00  0.0000000000000D+00  0.0000000000000D+00
   354  3.5300000000000D+00  0.0000000000000D+00  0.0000000000000D+00
   355  3.5400000000000D+00  0.0000000000000D+00  0.0000000000000D+00
   356  3.5500000000000D+00  0.0000000000000D+00  0.0000000000000D+00
   357  3.5600000000000D+00  0.0000000000000D+00  0.0000000000000D+00
   358  3.5700000000000D+00  0.0000000000000D+00  0.0000000000000D+00
   359  3.5800000000000D+00  0.0000000000000D+00  0.0000000000000D+00
   360  3.5900000000000D+00  0.0000000000000D+00  0.0000000000000D+00
   361  3.6000000000000D+00  0.0000000000000D+00  0.0000000000000D+00
   362  3.6100000000000D+00  0.0000000000000D+00  0.0000000000000D+00
   363  3.6200000000000D+00  0.0000000000000D+00  0.0000000000000D+00
   364  3.6300000000000D+00  0.0000000000000D+00  0.0000000000000D+00
   365  3.6400000000000D+00  0.0000000000000D+00  0.0000000000000D+00
   366  3.6500000000000D+00  0.0000000000000D+00  0.0000000000000D+00
   367  3.6600000000000D+00  0.0000000000000D+00  0.0000000000000D+00
   368  3.6700000000000D+00  0.0000000000000D+00  0.0000000000000D+00
   369  3.6800000000000D+00  0.0000000000000D+00  0.0000000000000D+00
   370  3.6900000000000D+00  0.0000000000000D+00  0.0000000000000D+00
   371  3.7000000000000D+00  0.0000000000000D+00  0.0000000000000D+00
   372  3.7100000000000D+00  0.0000000000000D+00  0.0000000000000D+00
   373  3.7200000000000D+00  0.0000000000000D+00  0.0000000000000D+00
   374  3.7300000000000D+00  0.0000000000000D+00  0.0000000000000D+00
   375  3.7400000000000D+00  0.0000000000000D+00  0.0000000000000D+00
   376  3.7500000000000D+00  0.0000000000000D+00  0.0000000000000D+00
   377  3.7600000000000D+00  0.0000000000000D+00  0.0000000000000D+00
   378  3.7700000000000D+00  0.0000000000000D+00  0.0000000000000D+00
   379  3.7800000000000D+00  0.0000000000000D+00  0.0000000000000D+00
   380  3.7900000000000D+00  0.0000000000000D+00  0.0000000000000D+00
   381  3.8000000000000D+00  0.0000000000000D+00  0.0000000000000D+00
   382  3.8100000000000D+00  0.0000000000000D+00  0.0000000000000D+00
   383  3.8200000000000D+00  0.0000000000000D+00  0.0000000000000D+00
   384  3.8300000000000D+00  0.0000000000000D+00  0.0000000000000D+00
   385  3.8400000000000D+00  0.0000000000000D+00  0.0000000000000D+00
   386  3.8500000000000D+00  0.0000000000000D+00  0.0000000000000D+00
   387  3.8600000000000D+00  0.0000000000000D+00  0.0000000000000D+00
   388  3.8700000000000D+00  0.0000000000000D+00  0.0000000000000D+00
   389  3.8800000000000D+00  0.0000000000000D+00  0.0000000000000D+00
   390  3.8900000000000D+00  0.0000000000000D+00  0.0000000000000D+00
   391  3.9000000000000D+00  0.0000000000000D+00  0.0000000000000D+00
   392  3.9100000000000D+00  0.0000000000000D+00  0.0000000000000D+00
   393  3.9200000000000D+00  0.0000000000000D+00  0.0000000000000D+00
   394  3.9300000000000D+00  0.0000000000000D+00  0.0000000000000D+00
   395  3.9400000000000D+00  0.0000000000000D+00  0.0000000000000D+00
   396  3.9500000000000D+00  0.0000000000000D+00  0.0000000000000D+00
   397  3.9600000000000D+00  0.0000000000000D+00  0.0000000000000D+00
   398  3.9700000000000D+00  0.0000000000000D+00  0.0000000000000D+00
   399  3.9800000000000D+00  0.0000000000000D+00  0.0000000000000D+00
   400  3.9900000000000D+00  0.0000000000000D+00  0.0000000000000D+00
   401  4.0000000000000D+00  0.0000000000000D+00  0.0000000000000D+00
   402  4.0100000000000D+00  0.0000000000000D+00  0.0000000000000D+00
   403  4.0200000000000D+00  0.0000000000000D+00  0.0000000000000D+00
   404  4.0300000000000D+00  0.0000000000000D+00  0.0000000000000D+00
   405  4.0400000000000D+00  0.0000000000000D+00  0.0000000000000D+00
   406  4.0500000000000D+00  0.0000000000000D+00  0.0000000000000D+00
   407  4.0600000000000D+00  0.0000000000000D+00  0.0000000000000D+00
   408  4.0700000000000D+00  0.0000000000000D+00  0.0000000000000D+00
   409  4.0800000000000D+00  0.0000000000000D+00  0.0000000000000D+00
   410  4.0900000000000D+00  0.0000000000000D+00  0.0000000000000D+00
   411  4.1000000000000D+00  0.0000000000000D+00  0.0000000000000D+00
   412  4.1100000000000D+00  0.0000000000000D+00  0.0000000000000D+00
   413  4.1200000000000D+00  0.0000000000000D+00  0.0000000000000D+00
   414  4.1300000000000D+00  0.0000000000000D+00  0.0000000000000D+00
   415  4.1400000000000D+00  0.0000000000000D+00  0.0000000000000D+00
   416  4.1500000000000D+00  0.0000000000000D+00  0.0000000000000D+00
   417  4.1600000000000D+00  0.0000000000000D+00  0.0000000000000D+00
   418  4.1700000000000D+00  0.0000000000000D+00  0.0000000000000D+00
   419  4.1800000000000D+00  0.0000000000000D+00  0.0000000000000D+00
   420  4.1900000000000D+00  0.0000000000000D+00  0.0000000000000D+00
   421  4.2000000000000D+00  0.0000000000000D+00  0.0000000000000D+00
   422  4.2100000000000D+00  0.0000000000000D+00  0.0000000000000D+00