Se    ONCVPSP-3.3.0  r_core=   1.81943   1.50330   1.90835
     34.0000     16.0000      220117    zatom,zion,pspd
     8      11   2     4   600     0    pspcod,pspxc,lmax,lloc,mmax,r2well
  5.99000000  0.00000000  0.00000000    rchrg fchrg qchrg
     2     2     2     0     0    nproj
     1     1           extension_switch
   0                         8.9806424990497D+00  1.0120060466154D+00
     1  0.0000000000000D+00  3.8101743982111D-11 -1.3972129009332D-11
     2  1.0000000000000D-02  3.6667589642976D-02 -1.8529212977369D-02
     3  2.0000000000000D-02  7.3327557259753D-02 -3.7040603407077D-02
     4  3.0000000000000D-02  1.0997210959336D-01 -5.5516220254963D-02
     5  4.0000000000000D-02  1.4659311231773D-01 -7.3937856472508D-02
     6  5.0000000000000D-02  1.8318192297452D-01 -9.2286923382786D-02
     7  6.0000000000000D-02  2.1972922804859D-01 -1.1054432792840D-01
     8  7.0000000000000D-02  2.5622488551667D-01 -1.2869035371915D-01
     9  8.0000000000000D-02  2.9265777416575D-01 -1.4670454680312D-01
    10  9.0000000000000D-02  3.2901565093071D-01 -1.6456560706744D-01
    11  1.0000000000000D-01  3.6528501744442D-01 -1.8225128615375D-01
    12  1.1000000000000D-01  4.0145099693003D-01 -1.9973829274877D-01
    13  1.2000000000000D-01  4.3749722249243D-01 -2.1700220608203D-01
    14  1.3000000000000D-01  4.7340573778684D-01 -2.3401739843081D-01
    15  1.4000000000000D-01  5.0915691095601D-01 -2.5075696739666D-01
    16  1.5000000000000D-01  5.4472936263493D-01 -2.6719267867839D-01
    17  1.6000000000000D-01  5.8009990872378D-01 -2.8329492002347D-01
    18  1.7000000000000D-01  6.1524351852669D-01 -2.9903266699285D-01
    19  1.8000000000000D-01  6.5013328874651D-01 -3.1437346112350D-01
    20  1.9000000000000D-01  6.8474043371487D-01 -3.2928340101901D-01
    21  2.0000000000000D-01  7.1903429212320D-01 -3.4372714684042D-01
    22  2.1000000000000D-01  7.5298235040475D-01 -3.5766793860800D-01
    23  2.2000000000000D-01  7.8655028280109D-01 -3.7106762865977D-01
    24  2.3000000000000D-01  8.1970200802916D-01 -3.8388672854387D-01
    25  2.4000000000000D-01  8.5239976234868D-01 -3.9608447055052D-01
    26  2.5000000000000D-01  8.8460418871400D-01 -4.0761888401400D-01
    27  2.6000000000000D-01  9.1627444158144D-01 -4.1844688643789D-01
    28  2.7000000000000D-01  9.4736830683262D-01 -4.2852438941563D-01
    29  2.8000000000000D-01  9.7784233616731D-01 -4.3780641923621D-01
    30  2.9000000000000D-01  1.0076519952170D+00 -4.4624725197919D-01
    31  3.0000000000000D-01  1.0367518245329D+00 -4.5380056281658D-01
    32  3.1000000000000D-01  1.0650956125104D+00 -4.6041958915042D-01
    33  3.2000000000000D-01  1.0926365792266D+00 -4.6605730712560D-01
    34  3.3000000000000D-01  1.1193275700889D+00 -4.7066662096700D-01
    35  3.4000000000000D-01  1.1451212581237D+00 -4.7420056449954D-01
    36  3.5000000000000D-01  1.1699703536666D+00 -4.7661251411963D-01
    37  3.6000000000000D-01  1.1938278201689D+00 -4.7785641239679D-01
    38  3.7000000000000D-01  1.2166470947802D+00 -4.7788700139622D-01
    39  3.8000000000000D-01  1.2383823123391D+00 -4.7666006472641D-01
    40  3.9000000000000D-01  1.2589885313707D+00 -4.7413267723229D-01
    41  4.0000000000000D-01  1.2784219606754D+00 -4.7026346117302D-01
    42  4.1000000000000D-01  1.2966401850846D+00 -4.6501284764679D-01
    43  4.2000000000000D-01  1.3136023889593D+00 -4.5834334195110D-01
    44  4.3000000000000D-01  1.3292695760225D+00 -4.5021979149968D-01
    45  4.4000000000000D-01  1.3436047841338D+00 -4.4060965485345D-01
    46  4.5000000000000D-01  1.3565732936463D+00 -4.2948327036713D-01
    47  4.6000000000000D-01  1.3681428280272D+00 -4.1681412290238D-01
    48  4.7000000000000D-01  1.3782837454687D+00 -4.0257910701608D-01
    49  4.8000000000000D-01  1.3869692202767D+00 -3.8675878499708D-01
    50  4.9000000000000D-01  1.3941754128857D+00 -3.6933763809828D-01
    51  5.0000000000000D-01  1.3998816274254D+00 -3.5030430929347D-01
    52  5.1000000000000D-01  1.4040704558407D+00 -3.2965183587921D-01
    53  5.2000000000000D-01  1.4067279076551D+00 -3.0737787024411D-01
    54  5.3000000000000D-01  1.4078435245593D+00 -2.8348488713881D-01
    55  5.4000000000000D-01  1.4074104791033D+00 -2.5798037580178D-01
    56  5.5000000000000D-01  1.4054256568734D+00 -2.3087701532858D-01
    57  5.6000000000000D-01  1.4018897216398D+00 -2.0219283171562D-01
    58  5.7000000000000D-01  1.3968071630689D+00 -1.7195133506314D-01
    59  5.8000000000000D-01  1.3901863267067D+00 -1.4018163548822D-01
    60  5.9000000000000D-01  1.3820394260486D+00 -1.0691853637376D-01
    61  6.0000000000000D-01  1.3723825366270D+00 -7.2202603667352D-02
    62  6.1000000000000D-01  1.3612355721558D+00 -3.6080210040933D-02
    63  6.2000000000000D-01  1.3486222428874D+00  1.3964471692896D-03
    64  6.3000000000000D-01  1.3345699964412D+00  4.0169355205464D-02
    65  6.4000000000000D-01  1.3191099414744D+00  8.0174723148027D-02
    66  6.5000000000000D-01  1.3022767546656D+00  1.2134304789093D-01
    67  6.6000000000000D-01  1.2841085715812D+00  1.6359920938536D-01
    68  6.7000000000000D-01  1.2646468620915D+00  2.0686259555118D-01
    69  6.8000000000000D-01  1.2439362910882D+00  2.5104725709591D-01
    70  6.9000000000000D-01  1.2220245653405D+00  2.9606209231468D-01
    71  7.0000000000000D-01  1.1989622674032D+00  3.4181106177263D-01
    72  7.1000000000000D-01  1.1748026775562D+00  3.8819343259549D-01
    73  7.2000000000000D-01  1.1496015848219D+00  4.3510405191471D-01
    74  7.3000000000000D-01  1.1234170881539D+00  4.8243364883232D-01
    75  7.4000000000000D-01  1.0963093889418D+00  5.3006916408798D-01
    76  7.5000000000000D-01  1.0683405760109D+00  5.7789410642783D-01
    77  7.6000000000000D-01  1.0395744043239D+00  6.2578893449430D-01
    78  7.7000000000000D-01  1.0100760686133D+00  6.7363146287685D-01
    79  7.8000000000000D-01  9.7991197318282D-01  7.2129729078891D-01
    80  7.9000000000000D-01  9.4914949911884D-01  7.6866025166651D-01
    81  8.0000000000000D-01  9.1785677014686D-01  8.1559288182011D-01
    82  8.1000000000000D-01  8.8610241835370D-01  8.6196690611591D-01
    83  8.2000000000000D-01  8.5395535097270D-01  9.0765373851449D-01
    84  8.3000000000000D-01  8.2148451939950D-01  9.5252499515808D-01
    85  8.4000000000000D-01  7.8875869156756D-01  9.9645301757074D-01
    86  8.5000000000000D-01  7.5584622876778D-01  1.0393114034223D+00
    87  8.6000000000000D-01  7.2281486794497D-01  1.0809755422049D+00
    88  8.7000000000000D-01  6.8973151044681D-01  1.1213231530850D+00
    89  8.8000000000000D-01  6.5666201813732D-01  1.1602348221214D+00
    90  8.9000000000000D-01  6.2367101771980D-01  1.1975945359843D+00
    91  9.0000000000000D-01  5.9082171404199D-01  1.2332902092700D+00
    92  9.1000000000000D-01  5.5817571308056D-01  1.2672142024852D+00
    93  9.2000000000000D-01  5.2579285522401D-01  1.2992638277690D+00
    94  9.3000000000000D-01  4.9373105939298D-01  1.3293418394346D+00
    95  9.4000000000000D-01  4.6204617845441D-01  1.3573569064444D+00
    96  9.5000000000000D-01  4.3079186630420D-01  1.3832240639826D+00
    97  9.6000000000000D-01  4.0001945691006D-01  1.4068651413574D+00
    98  9.7000000000000D-01  3.6977785552480D-01  1.4282091635534D+00
    99  9.8000000000000D-01  3.4011344219942D-01  1.4471927238582D+00
   100  9.9000000000000D-01  3.1106998764737D-01  1.4637603251095D+00
   101  1.0000000000000D+00  2.8268858143513D-01  1.4778646872526D+00
   102  1.0100000000000D+00  2.5500757240079D-01  1.4894670190520D+00
   103  1.0200000000000D+00  2.2806252113663D-01  1.4985372519689D+00
   104  1.0300000000000D+00  2.0188616430206D-01  1.5050542344130D+00
   105  1.0400000000000D+00  1.7650839047690D-01  1.5090058847709D+00
   106  1.0500000000000D+00  1.5195622720883D-01  1.5103893018270D+00
   107  1.0600000000000D+00  1.2825383885821D-01  1.5092108314250D+00
   108  1.0700000000000D+00  1.0542253480111D-01  1.5054860884454D+00
   109  1.0800000000000D+00  8.3480787512428D-02  1.4992399334158D+00
   110  1.0900000000000D+00  6.2444260017415D-02  1.4905064033368D+00
   111  1.1000000000000D+00  4.2325842175685D-02  1.4793285965466D+00
   112  1.1100000000000D+00  2.3135695240305D-02  1.4657585117299D+00
   113  1.1200000000000D+00  4.8813041219032D-03  1.4498568414002D+00
   114  1.1300000000000D+00 -1.2432463222720D-02  1.4316927204925D+00
   115  1.1400000000000D+00 -2.8803289858959D-02  1.4113434309395D+00
   116  1.1500000000000D+00 -4.4231337977162D-02  1.3888940633892D+00
   117  1.1600000000000D+00 -5.8719171601704D-02  1.3644371374247D+00
   118  1.1700000000000D+00 -7.2271674463497D-02  1.3380721819534D+00
   119  1.1800000000000D+00 -8.4895963575435D-02  1.3099052776448D+00
   120  1.1900000000000D+00 -9.6601299024237D-02  1.2800485635523D+00
   121  1.2000000000000D+00 -1.0739899047993D-01  1.2486197101936D+00
   122  1.2100000000000D+00 -1.1730230087936D-01  1.2157413616881D+00
   123  1.2200000000000D+00 -1.2632634771445D-01  1.1815405496732D+00
   124  1.2300000000000D+00 -1.3448800233063D-01  1.1461480818739D+00
   125  1.2400000000000D+00 -1.4180578759729D-01  1.1096979084167D+00
   126  1.2500000000000D+00 -1.4829977427160D-01  1.0723264691054D+00
   127  1.2600000000000D+00 -1.5399147635274D-01  1.0341720249610D+00
   128  1.2700000000000D+00 -1.5890374568549D-01  9.9537397746193D-01
   129  1.2800000000000D+00 -1.6306066601885D-01  9.5607217901455D-01
   130  1.2900000000000D+00 -1.6648744671315D-01  9.1640623819257D-01
   131  1.3000000000000D+00 -1.6921031625095D-01  8.7651482337282D-01
   132  1.3100000000000D+00 -1.7125641565532D-01  8.3653496838020D-01
   133  1.3200000000000D+00 -1.7265369192258D-01  7.9660138374124D-01
   134  1.3300000000000D+00 -1.7343079153119D-01  7.5684577717148D-01
   135  1.3400000000000D+00 -1.7361695405992D-01  7.1739618675302D-01
   136  1.3500000000000D+00 -1.7324190595698D-01  6.7837633033017D-01
   137  1.3600000000000D+00 -1.7233575445509D-01  6.3990497448245D-01
   138  1.3700000000000D+00 -1.7092888163738D-01  6.0209532618511D-01
   139  1.3800000000000D+00 -1.6905183864655D-01  5.6505445052127D-01
   140  1.3900000000000D+00 -1.6673524002151D-01  5.2888271713985D-01
   141  1.4000000000000D+00 -1.6400965816157D-01  4.9367327835410D-01
   142  1.4100000000000D+00 -1.6090551789650D-01  4.5951158160679D-01
   143  1.4200000000000D+00 -1.5745299120152D-01  4.2647491829599D-01
   144  1.4300000000000D+00 -1.5368189203587D-01  3.9463201168869D-01
   145  1.4400000000000D+00 -1.4962157138144D-01  3.6404264535300D-01
   146  1.4500000000000D+00 -1.4530081252870D-01  3.3475733405524D-01
   147  1.4600000000000D+00 -1.4074772575252D-01  3.0681703404314D-01
   148  1.4700000000000D+00 -1.3598964659431D-01  2.8025291457083D-01
   149  1.4800000000000D+00 -1.3105302957242D-01  2.5508614773006D-01
   150  1.4900000000000D+00 -1.2596337846371D-01  2.3132792724485D-01
   151  1.5000000000000D+00 -1.2074502868373D-01  2.0897878322078D-01
   152  1.5100000000000D+00 -1.1542117423555D-01  1.8802916716070D-01
   153  1.5200000000000D+00 -1.1001414806911D-01  1.6846141408514D-01
   154  1.5300000000000D+00 -1.0454564881686D-01  1.5025126101653D-01
   155  1.5400000000000D+00 -9.9037081540837D-02  1.3336988363262D-01
   156  1.5500000000000D+00 -9.3509523416801D-02  1.1778404572017D-01
   157  1.5600000000000D+00 -8.7983637703783D-02  1.0345596595850D-01
   158  1.5700000000000D+00 -8.2479699978739D-02  9.0343876993808D-02
   159  1.5800000000000D+00 -7.7017558612211D-02  7.8402259210440D-02
   160  1.5900000000000D+00 -7.1616615598753D-02  6.7582227882552D-02
   161  1.6000000000000D+00 -6.6295798550322D-02  5.7831908400296D-02
   162  1.6100000000000D+00 -6.1073532085453D-02  4.9096839893599D-02
   163  1.6200000000000D+00 -5.5967707554716D-02  4.1320396328004D-02
   164  1.6300000000000D+00 -5.0995651358361D-02  3.4444221899837D-02
   165  1.6400000000000D+00 -4.6174091989433D-02  2.8408676293359D-02
   166  1.6500000000000D+00 -4.1519126037413D-02  2.3153286265654D-02
   167  1.6600000000000D+00 -3.7046183315945D-02  1.8617199206157D-02
   168  1.6700000000000D+00 -3.2769991372044D-02  1.4739635311057D-02
   169  1.6800000000000D+00 -2.8704539572125D-02  1.1460333989938D-02
   170  1.6900000000000D+00 -2.4863043040503D-02  8.7199916036138D-03
   171  1.7000000000000D+00 -2.1257906689493D-02  6.4606861306180D-03
   172  1.7100000000000D+00 -1.7900689606728D-02  4.6262864150447D-03
   173  1.7200000000000D+00 -1.4802070095021D-02  3.1628417176658D-03
   174  1.7300000000000D+00 -1.1971811591756D-02  2.0189497158225D-03
   175  1.7400000000000D+00 -9.4187298071796D-03  1.1460990376411D-03
   176  1.7500000000000D+00 -7.1506612637558D-03  4.9898476868128D-04
   177  1.7600000000000D+00 -5.1749507403873D-03  3.4871458890939D-05
   178  1.7700000000000D+00 -3.4966219003307D-03 -2.8294051429728D-04
   179  1.7800000000000D+00 -2.1181530278190D-03 -4.8081536758141D-04
   180  1.7900000000000D+00 -1.0458756234289D-03 -5.9680786990177D-04
   181  1.8000000000000D+00 -2.8778816770260D-04 -6.9536662400492D-04
   182  1.8100000000000D+00  1.5944957551803D-04 -7.8210903497074D-04
   183  1.8200000000000D+00  3.0514901551371D-04 -7.1131079280225D-04
   184  1.8300000000000D+00  1.9533343500946D-04 -3.8165806827977D-04
   185  1.8400000000000D+00  1.8855472861653D-05 -3.4467433962844D-05
   186  1.8500000000000D+00 -4.3667458447481D-05  7.7554640913645D-05
   187  1.8600000000000D+00 -1.6698295684239D-05  2.8919950887699D-05
   188  1.8700000000000D+00  8.1590796172216D-06 -1.5297239813641D-05
   189  1.8800000000000D+00  6.2623420846421D-06 -1.1600793157014D-05
   190  1.8900000000000D+00 -5.3895280895451D-07  1.2782511942743D-06
   191  1.9000000000000D+00 -7.6849202341650D-07  1.8226565116675D-06
   192  1.9100000000000D+00  0.0000000000000D+00  0.0000000000000D+00
   193  1.9200000000000D+00  0.0000000000000D+00  0.0000000000000D+00
   194  1.9300000000000D+00  0.0000000000000D+00  0.0000000000000D+00
   195  1.9400000000000D+00  0.0000000000000D+00  0.0000000000000D+00
   196  1.9500000000000D+00  0.0000000000000D+00  0.0000000000000D+00
   197  1.9600000000000D+00  0.0000000000000D+00  0.0000000000000D+00
   198  1.9700000000000D+00  0.0000000000000D+00  0.0000000000000D+00
   199  1.9800000000000D+00  0.0000000000000D+00  0.0000000000000D+00
   200  1.9900000000000D+00  0.0000000000000D+00  0.0000000000000D+00
   201  2.0000000000000D+00  0.0000000000000D+00  0.0000000000000D+00
   202  2.0100000000000D+00  0.0000000000000D+00  0.0000000000000D+00
   203  2.0200000000000D+00  0.0000000000000D+00  0.0000000000000D+00
   204  2.0300000000000D+00  0.0000000000000D+00  0.0000000000000D+00
   205  2.0400000000000D+00  0.0000000000000D+00  0.0000000000000D+00
   206  2.0500000000000D+00  0.0000000000000D+00  0.0000000000000D+00
   207  2.0600000000000D+00  0.0000000000000D+00  0.0000000000000D+00
   208  2.0700000000000D+00  0.0000000000000D+00  0.0000000000000D+00
   209  2.0800000000000D+00  0.0000000000000D+00  0.0000000000000D+00
   210  2.0900000000000D+00  0.0000000000000D+00  0.0000000000000D+00
   211  2.1000000000000D+00  0.0000000000000D+00  0.0000000000000D+00
   212  2.1100000000000D+00  0.0000000000000D+00  0.0000000000000D+00
   213  2.1200000000000D+00  0.0000000000000D+00  0.0000000000000D+00
   214  2.1300000000000D+00  0.0000000000000D+00  0.0000000000000D+00
   215  2.1400000000000D+00  0.0000000000000D+00  0.0000000000000D+00
   216  2.1500000000000D+00  0.0000000000000D+00  0.0000000000000D+00
   217  2.1600000000000D+00  0.0000000000000D+00  0.0000000000000D+00
   218  2.1700000000000D+00  0.0000000000000D+00  0.0000000000000D+00
   219  2.1800000000000D+00  0.0000000000000D+00  0.0000000000000D+00
   220  2.1900000000000D+00  0.0000000000000D+00  0.0000000000000D+00
   221  2.2000000000000D+00  0.0000000000000D+00  0.0000000000000D+00
   222  2.2100000000000D+00  0.0000000000000D+00  0.0000000000000D+00
   223  2.2200000000000D+00  0.0000000000000D+00  0.0000000000000D+00
   224  2.2300000000000D+00  0.0000000000000D+00  0.0000000000000D+00
   225  2.2400000000000D+00  0.0000000000000D+00  0.0000000000000D+00
   226  2.2500000000000D+00  0.0000000000000D+00  0.0000000000000D+00
   227  2.2600000000000D+00  0.0000000000000D+00  0.0000000000000D+00
   228  2.2700000000000D+00  0.0000000000000D+00  0.0000000000000D+00
   229  2.2800000000000D+00  0.0000000000000D+00  0.0000000000000D+00
   230  2.2900000000000D+00  0.0000000000000D+00  0.0000000000000D+00
   231  2.3000000000000D+00  0.0000000000000D+00  0.0000000000000D+00
   232  2.3100000000000D+00  0.0000000000000D+00  0.0000000000000D+00
   233  2.3200000000000D+00  0.0000000000000D+00  0.0000000000000D+00
   234  2.3300000000000D+00  0.0000000000000D+00  0.0000000000000D+00
   235  2.3400000000000D+00  0.0000000000000D+00  0.0000000000000D+00
   236  2.3500000000000D+00  0.0000000000000D+00  0.0000000000000D+00
   237  2.3600000000000D+00  0.0000000000000D+00  0.0000000000000D+00
   238  2.3700000000000D+00  0.0000000000000D+00  0.0000000000000D+00
   239  2.3800000000000D+00  0.0000000000000D+00  0.0000000000000D+00
   240  2.3900000000000D+00  0.0000000000000D+00  0.0000000000000D+00
   241  2.4000000000000D+00  0.0000000000000D+00  0.0000000000000D+00
   242  2.4100000000000D+00  0.0000000000000D+00  0.0000000000000D+00
   243  2.4200000000000D+00  0.0000000000000D+00  0.0000000000000D+00
   244  2.4300000000000D+00  0.0000000000000D+00  0.0000000000000D+00
   245  2.4400000000000D+00  0.0000000000000D+00  0.0000000000000D+00
   246  2.4500000000000D+00  0.0000000000000D+00  0.0000000000000D+00
   247  2.4600000000000D+00  0.0000000000000D+00  0.0000000000000D+00
   248  2.4700000000000D+00  0.0000000000000D+00  0.0000000000000D+00
   249  2.4800000000000D+00  0.0000000000000D+00  0.0000000000000D+00
   250  2.4900000000000D+00  0.0000000000000D+00  0.0000000000000D+00
   251  2.5000000000000D+00  0.0000000000000D+00  0.0000000000000D+00
   252  2.5100000000000D+00  0.0000000000000D+00  0.0000000000000D+00
   253  2.5200000000000D+00  0.0000000000000D+00  0.0000000000000D+00
   254  2.5300000000000D+00  0.0000000000000D+00  0.0000000000000D+00
   255  2.5400000000000D+00  0.0000000000000D+00  0.0000000000000D+00
   256  2.5500000000000D+00  0.0000000000000D+00  0.0000000000000D+00
   257  2.5600000000000D+00  0.0000000000000D+00  0.0000000000000D+00
   258  2.5700000000000D+00  0.0000000000000D+00  0.0000000000000D+00
   259  2.5800000000000D+00  0.0000000000000D+00  0.0000000000000D+00
   260  2.5900000000000D+00  0.0000000000000D+00  0.0000000000000D+00
   261  2.6000000000000D+00  0.0000000000000D+00  0.0000000000000D+00
   262  2.6100000000000D+00  0.0000000000000D+00  0.0000000000000D+00
   263  2.6200000000000D+00  0.0000000000000D+00  0.0000000000000D+00
   264  2.6300000000000D+00  0.0000000000000D+00  0.0000000000000D+00
   265  2.6400000000000D+00  0.0000000000000D+00  0.0000000000000D+00
   266  2.6500000000000D+00  0.0000000000000D+00  0.0000000000000D+00
   267  2.6600000000000D+00  0.0000000000000D+00  0.0000000000000D+00
   268  2.6700000000000D+00  0.0000000000000D+00  0.0000000000000D+00
   269  2.6800000000000D+00  0.0000000000000D+00  0.0000000000000D+00
   270  2.6900000000000D+00  0.0000000000000D+00  0.0000000000000D+00
   271  2.7000000000000D+00  0.0000000000000D+00  0.0000000000000D+00
   272  2.7100000000000D+00  0.0000000000000D+00  0.0000000000000D+00
   273  2.7200000000000D+00  0.0000000000000D+00  0.0000000000000D+00
   274  2.7300000000000D+00  0.0000000000000D+00  0.0000000000000D+00
   275  2.7400000000000D+00  0.0000000000000D+00  0.0000000000000D+00
   276  2.7500000000000D+00  0.0000000000000D+00  0.0000000000000D+00
   277  2.7600000000000D+00  0.0000000000000D+00  0.0000000000000D+00
   278  2.7700000000000D+00  0.0000000000000D+00  0.0000000000000D+00
   279  2.7800000000000D+00  0.0000000000000D+00  0.0000000000000D+00
   280  2.7900000000000D+00  0.0000000000000D+00  0.0000000000000D+00
   281  2.8000000000000D+00  0.0000000000000D+00  0.0000000000000D+00
   282  2.8100000000000D+00  0.0000000000000D+00  0.0000000000000D+00
   283  2.8200000000000D+00  0.0000000000000D+00  0.0000000000000D+00
   284  2.8300000000000D+00  0.0000000000000D+00  0.0000000000000D+00
   285  2.8400000000000D+00  0.0000000000000D+00  0.0000000000000D+00
   286  2.8500000000000D+00  0.0000000000000D+00  0.0000000000000D+00
   287  2.8600000000000D+00  0.0000000000000D+00  0.0000000000000D+00
   288  2.8700000000000D+00  0.0000000000000D+00  0.0000000000000D+00
   289  2.8800000000000D+00  0.0000000000000D+00  0.0000000000000D+00
   290  2.8900000000000D+00  0.0000000000000D+00  0.0000000000000D+00
   291  2.9000000000000D+00  0.0000000000000D+00  0.0000000000000D+00
   292  2.9100000000000D+00  0.0000000000000D+00  0.0000000000000D+00
   293  2.9200000000000D+00  0.0000000000000D+00  0.0000000000000D+00
   294  2.9300000000000D+00  0.0000000000000D+00  0.0000000000000D+00
   295  2.9400000000000D+00  0.0000000000000D+00  0.0000000000000D+00
   296  2.9500000000000D+00  0.0000000000000D+00  0.0000000000000D+00
   297  2.9600000000000D+00  0.0000000000000D+00  0.0000000000000D+00
   298  2.9700000000000D+00  0.0000000000000D+00  0.0000000000000D+00
   299  2.9800000000000D+00  0.0000000000000D+00  0.0000000000000D+00
   300  2.9900000000000D+00  0.0000000000000D+00  0.0000000000000D+00
   301  3.0000000000000D+00  0.0000000000000D+00  0.0000000000000D+00
   302  3.0100000000000D+00  0.0000000000000D+00  0.0000000000000D+00
   303  3.0200000000000D+00  0.0000000000000D+00  0.0000000000000D+00
   304  3.0300000000000D+00  0.0000000000000D+00  0.0000000000000D+00
   305  3.0400000000000D+00  0.0000000000000D+00  0.0000000000000D+00
   306  3.0500000000000D+00  0.0000000000000D+00  0.0000000000000D+00
   307  3.0600000000000D+00  0.0000000000000D+00  0.0000000000000D+00
   308  3.0700000000000D+00  0.0000000000000D+00  0.0000000000000D+00
   309  3.0800000000000D+00  0.0000000000000D+00  0.0000000000000D+00
   310  3.0900000000000D+00  0.0000000000000D+00  0.0000000000000D+00
   311  3.1000000000000D+00  0.0000000000000D+00  0.0000000000000D+00
   312  3.1100000000000D+00  0.0000000000000D+00  0.0000000000000D+00
   313  3.1200000000000D+00  0.0000000000000D+00  0.0000000000000D+00
   314  3.1300000000000D+00  0.0000000000000D+00  0.0000000000000D+00
   315  3.1400000000000D+00  0.0000000000000D+00  0.0000000000000D+00
   316  3.1500000000000D+00  0.0000000000000D+00  0.0000000000000D+00
   317  3.1600000000000D+00  0.0000000000000D+00  0.0000000000000D+00
   318  3.1700000000000D+00  0.0000000000000D+00  0.0000000000000D+00
   319  3.1800000000000D+00  0.0000000000000D+00  0.0000000000000D+00
   320  3.1900000000000D+00  0.0000000000000D+00  0.0000000000000D+00
   321  3.2000000000000D+00  0.0000000000000D+00  0.0000000000000D+00
   322  3.2100000000000D+00  0.0000000000000D+00  0.0000000000000D+00
   323  3.2200000000000D+00  0.0000000000000D+00  0.0000000000000D+00
   324  3.2300000000000D+00  0.0000000000000D+00  0.0000000000000D+00
   325  3.2400000000000D+00  0.0000000000000D+00  0.0000000000000D+00
   326  3.2500000000000D+00  0.0000000000000D+00  0.0000000000000D+00
   327  3.2600000000000D+00  0.0000000000000D+00  0.0000000000000D+00
   328  3.2700000000000D+00  0.0000000000000D+00  0.0000000000000D+00
   329  3.2800000000000D+00  0.0000000000000D+00  0.0000000000000D+00
   330  3.2900000000000D+00  0.0000000000000D+00  0.0000000000000D+00
   331  3.3000000000000D+00  0.0000000000000D+00  0.0000000000000D+00
   332  3.3100000000000D+00  0.0000000000000D+00  0.0000000000000D+00
   333  3.3200000000000D+00  0.0000000000000D+00  0.0000000000000D+00
   334  3.3300000000000D+00  0.0000000000000D+00  0.0000000000000D+00
   335  3.3400000000000D+00  0.0000000000000D+00  0.0000000000000D+00
   336  3.3500000000000D+00  0.0000000000000D+00  0.0000000000000D+00
   337  3.3600000000000D+00  0.0000000000000D+00  0.0000000000000D+00
   338  3.3700000000000D+00  0.0000000000000D+00  0.0000000000000D+00
   339  3.3800000000000D+00  0.0000000000000D+00  0.0000000000000D+00
   340  3.3900000000000D+00  0.0000000000000D+00  0.0000000000000D+00
   341  3.4000000000000D+00  0.0000000000000D+00  0.0000000000000D+00
   342  3.4100000000000D+00  0.0000000000000D+00  0.0000000000000D+00
   343  3.4200000000000D+00  0.0000000000000D+00  0.0000000000000D+00
   344  3.4300000000000D+00  0.0000000000000D+00  0.0000000000000D+00
   345  3.4400000000000D+00  0.0000000000000D+00  0.0000000000000D+00
   346  3.4500000000000D+00  0.0000000000000D+00  0.0000000000000D+00
   347  3.4600000000000D+00  0.0000000000000D+00  0.0000000000000D+00
   348  3.4700000000000D+00  0.0000000000000D+00  0.0000000000000D+00
   349  3.4800000000000D+00  0.0000000000000D+00  0.0000000000000D+00
   350  3.4900000000000D+00  0.0000000000000D+00  0.0000000000000D+00
   351  3.5000000000000D+00  0.0000000000000D+00  0.0000000000000D+00
   352  3.5100000000000D+00  0.0000000000000D+00  0.0000000000000D+00
   353  3.5200000000000D+00  0.0000000000000D+00  0.0000000000000D+00
   354  3.5300000000000D+00  0.0000000000000D+00  0.0000000000000D+00
   355  3.5400000000000D+00  0.0000000000000D+00  0.0000000000000D+00
   356  3.5500000000000D+00  0.0000000000000D+00  0.0000000000000D+00
   357  3.5600000000000D+00  0.0000000000000D+00  0.0000000000000D+00
   358  3.5700000000000D+00  0.0000000000000D+00  0.0000000000000D+00
   359  3.5800000000000D+00  0.0000000000000D+00  0.0000000000000D+00
   360  3.5900000000000D+00  0.0000000000000D+00  0.0000000000000D+00
   361  3.6000000000000D+00  0.0000000000000D+00  0.0000000000000D+00
   362  3.6100000000000D+00  0.0000000000000D+00  0.0000000000000D+00
   363  3.6200000000000D+00  0.0000000000000D+00  0.0000000000000D+00
   364  3.6300000000000D+00  0.0000000000000D+00  0.0000000000000D+00
   365  3.6400000000000D+00  0.0000000000000D+00  0.0000000000000D+00
   366  3.6500000000000D+00  0.0000000000000D+00  0.0000000000000D+00
   367  3.6600000000000D+00  0.0000000000000D+00  0.0000000000000D+00
   368  3.6700000000000D+00  0.0000000000000D+00  0.0000000000000D+00
   369  3.6800000000000D+00  0.0000000000000D+00  0.0000000000000D+00
   370  3.6900000000000D+00  0.0000000000000D+00  0.0000000000000D+00
   371  3.7000000000000D+00  0.0000000000000D+00  0.0000000000000D+00
   372  3.7100000000000D+00  0.0000000000000D+00  0.0000000000000D+00
   373  3.7200000000000D+00  0.0000000000000D+00  0.0000000000000D+00
   374  3.7300000000000D+00  0.0000000000000D+00  0.0000000000000D+00
   375  3.7400000000000D+00  0.0000000000000D+00  0.0000000000000D+00
   376  3.7500000000000D+00  0.0000000000000D+00  0.0000000000000D+00
   377  3.7600000000000D+00  0.0000000000000D+00  0.0000000000000D+00
   378  3.7700000000000D+00  0.0000000000000D+00  0.0000000000000D+00
   379  3.7800000000000D+00  0.0000000000000D+00  0.0000000000000D+00
   380  3.7900000000000D+00  0.0000000000000D+00  0.0000000000000D+00
   381  3.8000000000000D+00  0.0000000000000D+00  0.0000000000000D+00
   382  3.8100000000000D+00  0.0000000000000D+00  0.0000000000000D+00
   383  3.8200000000000D+00  0.0000000000000D+00  0.0000000000000D+00
   384  3.8300000000000D+00  0.0000000000000D+00  0.0000000000000D+00
   385  3.8400000000000D+00  0.0000000000000D+00  0.0000000000000D+00
   386  3.8500000000000D+00  0.0000000000000D+00  0.0000000000000D+00
   387  3.8600000000000D+00  0.0000000000000D+00  0.0000000000000D+00
   388  3.8700000000000D+00  0.0000000000000D+00  0.0000000000000D+00
   389  3.8800000000000D+00  0.0000000000000D+00  0.0000000000000D+00
   390  3.8900000000000D+00  0.0000000000000D+00  0.0000000000000D+00
   391  3.9000000000000D+00  0.0000000000000D+00  0.0000000000000D+00
   392  3.9100000000000D+00  0.0000000000000D+00  0.0000000000000D+00
   393  3.9200000000000D+00  0.0000000000000D+00  0.0000000000000D+00
   394  3.9300000000000D+00  0.0000000000000D+00  0.0000000000000D+00
   395  3.9400000000000D+00  0.0000000000000D+00  0.0000000000000D+00
   396  3.9500000000000D+00  0.0000000000000D+00  0.0000000000000D+00
   397  3.9600000000000D+00  0.0000000000000D+00  0.0000000000000D+00
   398  3.9700000000000D+00  0.0000000000000D+00  0.0000000000000D+00
   399  3.9800000000000D+00  0.0000000000000D+00  0.0000000000000D+00
   400  3.9900000000000D+00  0.0000000000000D+00  0.0000000000000D+00
   401  4.0000000000000D+00  0.0000000000000D+00  0.0000000000000D+00
   402  4.0100000000000D+00  0.0000000000000D+00  0.0000000000000D+00
   403  4.0200000000000D+00  0.0000000000000D+00  0.0000000000000D+00
   404  4.0300000000000D+00  0.0000000000000D+00  0.0000000000000D+00
   405  4.0400000000000D+00  0.0000000000000D+00  0.0000000000000D+00
   406  4.0500000000000D+00  0.0000000000000D+00  0.0000000000000D+00
   407  4.0600000000000D+00  0.0000000000000D+00  0.0000000000000D+00
   408  4.0700000000000D+00  0.0000000000000D+00  0.0000000000000D+00
   409  4.0800000000000D+00  0.0000000000000D+00  0.0000000000000D+00
   410  4.0900000000000D+00  0.0000000000000D+00  0.0000000000000D+00
   411  4.1000000000000D+00  0.0000000000000D+00  0.0000000000000D+00
   412  4.1100000000000D+00  0.0000000000000D+00  0.0000000000000D+00
   413  4.1200000000000D+00  0.0000000000000D+00  0.0000000000000D+00
   414  4.1300000000000D+00  0.0000000000000D+00  0.0000000000000D+00
   415  4.1400000000000D+00  0.0000000000000D+00  0.0000000000000D+00
   416  4.1500000000000D+00  0.0000000000000D+00  0.0000000000000D+00
   417  4.1600000000000D+00  0.0000000000000D+00  0.0000000000000D+00
   418  4.1700000000000D+00  0.0000000000000D+00  0.0000000000000D+00
   419  4.1800000000000D+00  0.0000000000000D+00  0.0000000000000D+00
   420  4.1900000000000D+00  0.0000000000000D+00  0.0000000000000D+00
   421  4.2000000000000D+00  0.0000000000000D+00  0.0000000000000D+00
   422  4.2100000000000D+00  0.0000000000000D+00  0.0000000000000D+00