Se    ONCVPSP-3.3.0  r_core=   1.21282   1.41626   1.61484
     34.0000     24.0000      220117    zatom,zion,pspd
     8      11   2     4   600     0    pspcod,pspxc,lmax,lloc,mmax,r2well
  5.99000000  0.00000000  0.00000000    rchrg fchrg qchrg
     2     2     2     0     0    nproj
     1     1           extension_switch
   0                         3.5568452406677D+00 -2.8281388319500D+00
     1  0.0000000000000D+00  2.0551412793779D-09 -4.0139946921869D-11
     2  1.0000000000000D-02  9.8953808310431D-02  4.7439783055843D-02
     3  2.0000000000000D-02  1.9753576470416D-01  9.4837565616639D-02
     4  3.0000000000000D-02  2.9537409123013D-01  1.4215131372674D-01
     5  4.0000000000000D-02  3.9209718492737D-01  1.8933892659870D-01
     6  5.0000000000000D-02  4.8733377243350D-01  2.3635820343154D-01
     7  6.0000000000000D-02  5.8071314364334D-01  2.8316681053953D-01
     8  7.0000000000000D-02  6.7186548831456D-01  3.2972224894354D-01
     9  8.0000000000000D-02  7.6042235746256D-01  3.7598182261707D-01
    10  9.0000000000000D-02  8.4601726887648D-01  4.2190260762746D-01
    11  1.0000000000000D-01  9.2828647316108D-01  4.6744142246806D-01
    12  1.1000000000000D-01  1.0068698934094D+00  5.1255479993867D-01
    13  1.2000000000000D-01  1.0814122479886D+00  5.5719896099631D-01
    14  1.3000000000000D-01  1.1515643620328D+00  6.0132979106682D-01
    15  1.4000000000000D-01  1.2169846691412D+00  6.4490281937617D-01
    16  1.5000000000000D-01  1.2773409005398D+00  6.8787320192795D-01
    17  1.6000000000000D-01  1.3323119546518D+00  7.3019570881804D-01
    18  1.7000000000000D-01  1.3815899356984D+00  7.7182471663688D-01
    19  1.8000000000000D-01  1.4248823456877D+00  8.1271420676267D-01
    20  1.9000000000000D-01  1.4619144100234D+00  8.5281777039194D-01
    21  2.0000000000000D-01  1.4924315130287D+00  8.9208862118768D-01
    22  2.1000000000000D-01  1.5162017160201D+00  9.3047961644532D-01
    23  2.2000000000000D-01  1.5330183272265D+00  9.6794328768384D-01
    24  2.3000000000000D-01  1.5427024899054D+00  1.0044318815605D+00
    25  2.4000000000000D-01  1.5451057525060D+00  1.0398974119824D+00
    26  2.5000000000000D-01  1.5401125827197D+00  1.0742917242451D+00
    27  2.6000000000000D-01  1.5276427857915D+00  1.1075665719675D+00
    28  2.7000000000000D-01  1.5076537865675D+00  1.1396737075133D+00
    29  2.8000000000000D-01  1.4801427344592D+00  1.1705649864880D+00
    30  2.9000000000000D-01  1.4451483908338D+00  1.2001924867874D+00
    31  3.0000000000000D-01  1.4027527593026D+00  1.2285086425334D+00
    32  3.1000000000000D-01  1.3530824209755D+00  1.2554663930839D+00
    33  3.2000000000000D-01  1.2963095389817D+00  1.2810193471324D+00
    34  3.3000000000000D-01  1.2326524993962D+00  1.3051219617295D+00
    35  3.4000000000000D-01  1.1623761591499D+00  1.3277297358628D+00
    36  3.5000000000000D-01  1.0857916754827D+00  1.3487994180224D+00
    37  3.6000000000000D-01  1.0032558960081D+00  1.3682892269651D+00
    38  3.7000000000000D-01  9.1517029341411D-01  1.3861590846657D+00
    39  3.8000000000000D-01  8.2197943419861D-01  1.4023708602226D+00
    40  3.9000000000000D-01  7.2416897653591D-01  1.4168886232556D+00
    41  4.0000000000000D-01  6.2226319834453D-01  1.4296789051157D+00
    42  4.1000000000000D-01  5.1682206278115D-01  1.4407109660080D+00
    43  4.2000000000000D-01  4.0843783464888D-01  1.4499570659275D+00
    44  4.3000000000000D-01  2.9773126749022D-01  1.4573927371105D+00
    45  4.4000000000000D-01  1.8534738734993D-01  1.4629970555351D+00
    46  4.5000000000000D-01  7.1950905250822D-02  1.4667529088420D+00
    47  4.6000000000000D-01 -4.1778703761417D-02  1.4686472579222D+00
    48  4.7000000000000D-01 -1.5515241166908D-01  1.4686713893069D+00
    49  4.8000000000000D-01 -2.6747709023069D-01  1.4668211554205D+00
    50  4.9000000000000D-01 -3.7806115246437D-01  1.4630971997138D+00
    51  5.0000000000000D-01 -4.8622032591440D-01  1.4575051636813D+00
    52  5.1000000000000D-01 -5.9128349740121D-01  1.4500558727916D+00
    53  5.2000000000000D-01 -6.9259856631562D-01  1.4407654984229D+00
    54  5.3000000000000D-01 -7.8953824163339D-01  1.4296556929928D+00
    55  5.4000000000000D-01 -8.8150571674910D-01  1.4167536956118D+00
    56  5.5000000000000D-01 -9.6794015598421D-01  1.4020924057662D+00
    57  5.6000000000000D-01 -1.0483219272438D+00  1.3857104227488D+00
    58  5.7000000000000D-01 -1.1221775167839D+00  1.3676520488112D+00
    59  5.8000000000000D-01 -1.1890840644142D+00  1.3479672542945D+00
    60  5.9000000000000D-01 -1.2486734606771D+00  1.3267116033179D+00
    61  6.0000000000000D-01 -1.3006359516044D+00  1.3039461389559D+00
    62  6.1000000000000D-01 -1.3447232014909D+00  1.2797372272090D+00
    63  6.2000000000000D-01 -1.3807507697457D+00  1.2541563594807D+00
    64  6.3000000000000D-01 -1.4085999641402D+00  1.2272799136888D+00
    65  6.4000000000000D-01 -1.4282190397083D+00  1.1991888745807D+00
    66  6.5000000000000D-01 -1.4396237199825D+00  1.1699685142645D+00
    67  6.6000000000000D-01 -1.4428970251294D+00  1.1397080344237D+00
    68  6.7000000000000D-01 -1.4381883998114D+00  1.1085001721308D+00
    69  6.8000000000000D-01 -1.4257121420798D+00  1.0764407716231D+00
    70  6.9000000000000D-01 -1.4057451431911D+00  1.0436283248346D+00
    71  7.0000000000000D-01 -1.3786239569293D+00  1.0101634838975D+00
    72  7.1000000000000D-01 -1.3447412255217D+00  9.7614854921403D-01
    73  7.2000000000000D-01 -1.3045414975886D+00  9.4168693706982D-01
    74  7.3000000000000D-01 -1.2585164815501D+00  9.0688263108183D-01
    75  7.4000000000000D-01 -1.2071997854880D+00  8.7183962207030D-01
    76  7.5000000000000D-01 -1.1511612014667D+00  8.3666134118624D-01
    77  7.6000000000000D-01 -1.0910005986627D+00  8.0145009132479D-01
    78  7.7000000000000D-01 -1.0273414952543D+00  7.6630648199938D-01
    79  7.8000000000000D-01 -9.6082438378444D-01  7.3132887294126D-01
    80  7.9000000000000D-01 -8.9209988855420D-01  6.9661283172051D-01
    81  8.0000000000000D-01 -8.2182183646423D-01  6.6225061065507D-01
    82  8.1000000000000D-01 -7.5064032455017D-01  6.2833064818545D-01
    83  8.2000000000000D-01 -6.7919486821391D-01  5.9493709973948D-01
    84  8.3000000000000D-01 -6.0810771380415D-01  5.6214940289898D-01
    85  8.4000000000000D-01 -5.3797739774830D-01  5.3004188140591D-01
    86  8.5000000000000D-01 -4.6937263188163D-01  4.9868339221370D-01
    87  8.6000000000000D-01 -4.0282659098160D-01  4.6813701940127D-01
    88  8.7000000000000D-01 -3.3883167383239D-01  4.3845981832738D-01
    89  8.8000000000000D-01 -2.7783480346792D-01  4.0970261291460D-01
    90  8.9000000000000D-01 -2.2023332563723D-01  3.8190984842161D-01
    91  9.0000000000000D-01 -1.6637155708557D-01  3.5511950149357D-01
    92  9.1000000000000D-01 -1.1653802704033D-01  3.2936304868152D-01
    93  9.2000000000000D-01 -7.0963446396984D-02  3.0466549399482D-01
    94  9.3000000000000D-01 -2.9819429809455D-02  2.8104545541643D-01
    95  9.4000000000000D-01  6.7820140513542D-03  2.5851530965037D-01
    96  9.5000000000000D-01  3.8788218794825D-02  2.3708139372461D-01
    97  9.6000000000000D-01  6.6204828156767D-02  2.1674426142281D-01
    98  9.7000000000000D-01  8.9094010619234D-02  1.9749899188560D-01
    99  9.8000000000000D-01  1.0757194613170D-01  1.7933554711111D-01
   100  9.9000000000000D-01  1.2180562008577D-01  1.6223917450278D-01
   101  1.0000000000000D+00  1.3200896910840D-01  1.4619085006842D-01
   102  1.0100000000000D+00  1.3843843220992D-01  1.3116775736942D-01
   103  1.0200000000000D+00  1.4138796868123D-01  1.1714379688740D-01
   104  1.0300000000000D+00  1.4118361204948D-01  1.0409012005710D-01
   105  1.0400000000000D+00  1.3817763551657D-01  9.1975681906013D-02
   106  1.0500000000000D+00  1.3274240997984D-01  8.0767805970373D-02
   107  1.0600000000000D+00  1.2526404018050D-01  7.0432754967105D-02
   108  1.0700000000000D+00  1.1613586771034D-01  6.0936300589552D-02
   109  1.0800000000000D+00  1.0575193186963D-01  5.2244285743063D-02
   110  1.0900000000000D+00  9.4500480189773D-02  4.4323172581691D-02
   111  1.1000000000000D+00  8.2757620078089D-02  3.7140569814005D-02
   112  1.1100000000000D+00  7.0881201123179D-02  3.0665732962781D-02
   113  1.1200000000000D+00  5.9205015412052D-02  2.4870031473379D-02
   114  1.1300000000000D+00  4.8033398609240D-02  1.9727376952243D-02
   115  1.1400000000000D+00  3.7636309646406D-02  1.5214607194395D-02
   116  1.1500000000000D+00  2.8244959866148D-02  1.1311821179835D-02
   117  1.1600000000000D+00  2.0048056911451D-02  8.0026606242755D-03
   118  1.1700000000000D+00  1.3188718944286D-02  5.2745343596325D-03
   119  1.1800000000000D+00  7.7648385792962D-03  3.1199967622637D-03
   120  1.1900000000000D+00  3.7940406631090D-03  1.5227544405187D-03
   121  1.2000000000000D+00  1.3592158936286D-03  5.1744447435012D-04
   122  1.2100000000000D+00  3.4858727008870D-04  8.5600176883971D-05
   123  1.2200000000000D+00  5.2586449521728D-05 -9.4289357989522D-06
   124  1.2300000000000D+00 -3.0381631337049D-06  3.1627037583516D-06
   125  1.2400000000000D+00 -3.2037904745792D-07  2.1638434235520D-06
   126  1.2500000000000D+00  1.4052684847294D-06 -7.9616851516077D-07
   127  1.2600000000000D+00 -4.1597481146859D-07 -6.7518652998122D-08
   128  1.2700000000000D+00 -2.5701060350620D-07 -4.1716491663783D-08
   129  1.2800000000000D+00  0.0000000000000D+00  0.0000000000000D+00
   130  1.2900000000000D+00  0.0000000000000D+00  0.0000000000000D+00
   131  1.3000000000000D+00  0.0000000000000D+00  0.0000000000000D+00
   132  1.3100000000000D+00  0.0000000000000D+00  0.0000000000000D+00
   133  1.3200000000000D+00  0.0000000000000D+00  0.0000000000000D+00
   134  1.3300000000000D+00  0.0000000000000D+00  0.0000000000000D+00
   135  1.3400000000000D+00  0.0000000000000D+00  0.0000000000000D+00
   136  1.3500000000000D+00  0.0000000000000D+00  0.0000000000000D+00
   137  1.3600000000000D+00  0.0000000000000D+00  0.0000000000000D+00
   138  1.3700000000000D+00  0.0000000000000D+00  0.0000000000000D+00
   139  1.3800000000000D+00  0.0000000000000D+00  0.0000000000000D+00
   140  1.3900000000000D+00  0.0000000000000D+00  0.0000000000000D+00
   141  1.4000000000000D+00  0.0000000000000D+00  0.0000000000000D+00
   142  1.4100000000000D+00  0.0000000000000D+00  0.0000000000000D+00
   143  1.4200000000000D+00  0.0000000000000D+00  0.0000000000000D+00
   144  1.4300000000000D+00  0.0000000000000D+00  0.0000000000000D+00
   145  1.4400000000000D+00  0.0000000000000D+00  0.0000000000000D+00
   146  1.4500000000000D+00  0.0000000000000D+00  0.0000000000000D+00
   147  1.4600000000000D+00  0.0000000000000D+00  0.0000000000000D+00
   148  1.4700000000000D+00  0.0000000000000D+00  0.0000000000000D+00
   149  1.4800000000000D+00  0.0000000000000D+00  0.0000000000000D+00
   150  1.4900000000000D+00  0.0000000000000D+00  0.0000000000000D+00
   151  1.5000000000000D+00  0.0000000000000D+00  0.0000000000000D+00
   152  1.5100000000000D+00  0.0000000000000D+00  0.0000000000000D+00
   153  1.5200000000000D+00  0.0000000000000D+00  0.0000000000000D+00
   154  1.5300000000000D+00  0.0000000000000D+00  0.0000000000000D+00
   155  1.5400000000000D+00  0.0000000000000D+00  0.0000000000000D+00
   156  1.5500000000000D+00  0.0000000000000D+00  0.0000000000000D+00
   157  1.5600000000000D+00  0.0000000000000D+00  0.0000000000000D+00
   158  1.5700000000000D+00  0.0000000000000D+00  0.0000000000000D+00
   159  1.5800000000000D+00  0.0000000000000D+00  0.0000000000000D+00
   160  1.5900000000000D+00  0.0000000000000D+00  0.0000000000000D+00
   161  1.6000000000000D+00  0.0000000000000D+00  0.0000000000000D+00
   162  1.6100000000000D+00  0.0000000000000D+00  0.0000000000000D+00
   163  1.6200000000000D+00  0.0000000000000D+00  0.0000000000000D+00
   164  1.6300000000000D+00  0.0000000000000D+00  0.0000000000000D+00
   165  1.6400000000000D+00  0.0000000000000D+00  0.0000000000000D+00
   166  1.6500000000000D+00  0.0000000000000D+00  0.0000000000000D+00
   167  1.6600000000000D+00  0.0000000000000D+00  0.0000000000000D+00
   168  1.6700000000000D+00  0.0000000000000D+00  0.0000000000000D+00
   169  1.6800000000000D+00  0.0000000000000D+00  0.0000000000000D+00
   170  1.6900000000000D+00  0.0000000000000D+00  0.0000000000000D+00
   171  1.7000000000000D+00  0.0000000000000D+00  0.0000000000000D+00
   172  1.7100000000000D+00  0.0000000000000D+00  0.0000000000000D+00
   173  1.7200000000000D+00  0.0000000000000D+00  0.0000000000000D+00
   174  1.7300000000000D+00  0.0000000000000D+00  0.0000000000000D+00
   175  1.7400000000000D+00  0.0000000000000D+00  0.0000000000000D+00
   176  1.7500000000000D+00  0.0000000000000D+00  0.0000000000000D+00
   177  1.7600000000000D+00  0.0000000000000D+00  0.0000000000000D+00
   178  1.7700000000000D+00  0.0000000000000D+00  0.0000000000000D+00
   179  1.7800000000000D+00  0.0000000000000D+00  0.0000000000000D+00
   180  1.7900000000000D+00  0.0000000000000D+00  0.0000000000000D+00
   181  1.8000000000000D+00  0.0000000000000D+00  0.0000000000000D+00
   182  1.8100000000000D+00  0.0000000000000D+00  0.0000000000000D+00
   183  1.8200000000000D+00  0.0000000000000D+00  0.0000000000000D+00
   184  1.8300000000000D+00  0.0000000000000D+00  0.0000000000000D+00
   185  1.8400000000000D+00  0.0000000000000D+00  0.0000000000000D+00
   186  1.8500000000000D+00  0.0000000000000D+00  0.0000000000000D+00
   187  1.8600000000000D+00  0.0000000000000D+00  0.0000000000000D+00
   188  1.8700000000000D+00  0.0000000000000D+00  0.0000000000000D+00
   189  1.8800000000000D+00  0.0000000000000D+00  0.0000000000000D+00
   190  1.8900000000000D+00  0.0000000000000D+00  0.0000000000000D+00
   191  1.9000000000000D+00  0.0000000000000D+00  0.0000000000000D+00
   192  1.9100000000000D+00  0.0000000000000D+00  0.0000000000000D+00
   193  1.9200000000000D+00  0.0000000000000D+00  0.0000000000000D+00
   194  1.9300000000000D+00  0.0000000000000D+00  0.0000000000000D+00
   195  1.9400000000000D+00  0.0000000000000D+00  0.0000000000000D+00
   196  1.9500000000000D+00  0.0000000000000D+00  0.0000000000000D+00
   197  1.9600000000000D+00  0.0000000000000D+00  0.0000000000000D+00
   198  1.9700000000000D+00  0.0000000000000D+00  0.0000000000000D+00
   199  1.9800000000000D+00  0.0000000000000D+00  0.0000000000000D+00
   200  1.9900000000000D+00  0.0000000000000D+00  0.0000000000000D+00
   201  2.0000000000000D+00  0.0000000000000D+00  0.0000000000000D+00
   202  2.0100000000000D+00  0.0000000000000D+00  0.0000000000000D+00
   203  2.0200000000000D+00  0.0000000000000D+00  0.0000000000000D+00
   204  2.0300000000000D+00  0.0000000000000D+00  0.0000000000000D+00
   205  2.0400000000000D+00  0.0000000000000D+00  0.0000000000000D+00
   206  2.0500000000000D+00  0.0000000000000D+00  0.0000000000000D+00
   207  2.0600000000000D+00  0.0000000000000D+00  0.0000000000000D+00
   208  2.0700000000000D+00  0.0000000000000D+00  0.0000000000000D+00
   209  2.0800000000000D+00  0.0000000000000D+00  0.0000000000000D+00
   210  2.0900000000000D+00  0.0000000000000D+00  0.0000000000000D+00
   211  2.1000000000000D+00  0.0000000000000D+00  0.0000000000000D+00
   212  2.1100000000000D+00  0.0000000000000D+00  0.0000000000000D+00
   213  2.1200000000000D+00  0.0000000000000D+00  0.0000000000000D+00
   214  2.1300000000000D+00  0.0000000000000D+00  0.0000000000000D+00
   215  2.1400000000000D+00  0.0000000000000D+00  0.0000000000000D+00
   216  2.1500000000000D+00  0.0000000000000D+00  0.0000000000000D+00
   217  2.1600000000000D+00  0.0000000000000D+00  0.0000000000000D+00
   218  2.1700000000000D+00  0.0000000000000D+00  0.0000000000000D+00
   219  2.1800000000000D+00  0.0000000000000D+00  0.0000000000000D+00
   220  2.1900000000000D+00  0.0000000000000D+00  0.0000000000000D+00
   221  2.2000000000000D+00  0.0000000000000D+00  0.0000000000000D+00
   222  2.2100000000000D+00  0.0000000000000D+00  0.0000000000000D+00
   223  2.2200000000000D+00  0.0000000000000D+00  0.0000000000000D+00
   224  2.2300000000000D+00  0.0000000000000D+00  0.0000000000000D+00
   225  2.2400000000000D+00  0.0000000000000D+00  0.0000000000000D+00
   226  2.2500000000000D+00  0.0000000000000D+00  0.0000000000000D+00
   227  2.2600000000000D+00  0.0000000000000D+00  0.0000000000000D+00
   228  2.2700000000000D+00  0.0000000000000D+00  0.0000000000000D+00
   229  2.2800000000000D+00  0.0000000000000D+00  0.0000000000000D+00
   230  2.2900000000000D+00  0.0000000000000D+00  0.0000000000000D+00
   231  2.3000000000000D+00  0.0000000000000D+00  0.0000000000000D+00
   232  2.3100000000000D+00  0.0000000000000D+00  0.0000000000000D+00
   233  2.3200000000000D+00  0.0000000000000D+00  0.0000000000000D+00
   234  2.3300000000000D+00  0.0000000000000D+00  0.0000000000000D+00
   235  2.3400000000000D+00  0.0000000000000D+00  0.0000000000000D+00
   236  2.3500000000000D+00  0.0000000000000D+00  0.0000000000000D+00
   237  2.3600000000000D+00  0.0000000000000D+00  0.0000000000000D+00
   238  2.3700000000000D+00  0.0000000000000D+00  0.0000000000000D+00
   239  2.3800000000000D+00  0.0000000000000D+00  0.0000000000000D+00
   240  2.3900000000000D+00  0.0000000000000D+00  0.0000000000000D+00
   241  2.4000000000000D+00  0.0000000000000D+00  0.0000000000000D+00
   242  2.4100000000000D+00  0.0000000000000D+00  0.0000000000000D+00
   243  2.4200000000000D+00  0.0000000000000D+00  0.0000000000000D+00
   244  2.4300000000000D+00  0.0000000000000D+00  0.0000000000000D+00
   245  2.4400000000000D+00  0.0000000000000D+00  0.0000000000000D+00
   246  2.4500000000000D+00  0.0000000000000D+00  0.0000000000000D+00
   247  2.4600000000000D+00  0.0000000000000D+00  0.0000000000000D+00
   248  2.4700000000000D+00  0.0000000000000D+00  0.0000000000000D+00
   249  2.4800000000000D+00  0.0000000000000D+00  0.0000000000000D+00
   250  2.4900000000000D+00  0.0000000000000D+00  0.0000000000000D+00
   251  2.5000000000000D+00  0.0000000000000D+00  0.0000000000000D+00
   252  2.5100000000000D+00  0.0000000000000D+00  0.0000000000000D+00
   253  2.5200000000000D+00  0.0000000000000D+00  0.0000000000000D+00
   254  2.5300000000000D+00  0.0000000000000D+00  0.0000000000000D+00
   255  2.5400000000000D+00  0.0000000000000D+00  0.0000000000000D+00
   256  2.5500000000000D+00  0.0000000000000D+00  0.0000000000000D+00
   257  2.5600000000000D+00  0.0000000000000D+00  0.0000000000000D+00
   258  2.5700000000000D+00  0.0000000000000D+00  0.0000000000000D+00
   259  2.5800000000000D+00  0.0000000000000D+00  0.0000000000000D+00
   260  2.5900000000000D+00  0.0000000000000D+00  0.0000000000000D+00
   261  2.6000000000000D+00  0.0000000000000D+00  0.0000000000000D+00
   262  2.6100000000000D+00  0.0000000000000D+00  0.0000000000000D+00
   263  2.6200000000000D+00  0.0000000000000D+00  0.0000000000000D+00
   264  2.6300000000000D+00  0.0000000000000D+00  0.0000000000000D+00
   265  2.6400000000000D+00  0.0000000000000D+00  0.0000000000000D+00
   266  2.6500000000000D+00  0.0000000000000D+00  0.0000000000000D+00
   267  2.6600000000000D+00  0.0000000000000D+00  0.0000000000000D+00
   268  2.6700000000000D+00  0.0000000000000D+00  0.0000000000000D+00
   269  2.6800000000000D+00  0.0000000000000D+00  0.0000000000000D+00
   270  2.6900000000000D+00  0.0000000000000D+00  0.0000000000000D+00
   271  2.7000000000000D+00  0.0000000000000D+00  0.0000000000000D+00
   272  2.7100000000000D+00  0.0000000000000D+00  0.0000000000000D+00
   273  2.7200000000000D+00  0.0000000000000D+00  0.0000000000000D+00
   274  2.7300000000000D+00  0.0000000000000D+00  0.0000000000000D+00
   275  2.7400000000000D+00  0.0000000000000D+00  0.0000000000000D+00
   276  2.7500000000000D+00  0.0000000000000D+00  0.0000000000000D+00
   277  2.7600000000000D+00  0.0000000000000D+00  0.0000000000000D+00
   278  2.7700000000000D+00  0.0000000000000D+00  0.0000000000000D+00
   279  2.7800000000000D+00  0.0000000000000D+00  0.0000000000000D+00
   280  2.7900000000000D+00  0.0000000000000D+00  0.0000000000000D+00
   281  2.8000000000000D+00  0.0000000000000D+00  0.0000000000000D+00
   282  2.8100000000000D+00  0.0000000000000D+00  0.0000000000000D+00
   283  2.8200000000000D+00  0.0000000000000D+00  0.0000000000000D+00
   284  2.8300000000000D+00  0.0000000000000D+00  0.0000000000000D+00
   285  2.8400000000000D+00  0.0000000000000D+00  0.0000000000000D+00
   286  2.8500000000000D+00  0.0000000000000D+00  0.0000000000000D+00
   287  2.8600000000000D+00  0.0000000000000D+00  0.0000000000000D+00
   288  2.8700000000000D+00  0.0000000000000D+00  0.0000000000000D+00
   289  2.8800000000000D+00  0.0000000000000D+00  0.0000000000000D+00
   290  2.8900000000000D+00  0.0000000000000D+00  0.0000000000000D+00
   291  2.9000000000000D+00  0.0000000000000D+00  0.0000000000000D+00
   292  2.9100000000000D+00  0.0000000000000D+00  0.0000000000000D+00
   293  2.9200000000000D+00  0.0000000000000D+00  0.0000000000000D+00
   294  2.9300000000000D+00  0.0000000000000D+00  0.0000000000000D+00
   295  2.9400000000000D+00  0.0000000000000D+00  0.0000000000000D+00
   296  2.9500000000000D+00  0.0000000000000D+00  0.0000000000000D+00
   297  2.9600000000000D+00  0.0000000000000D+00  0.0000000000000D+00
   298  2.9700000000000D+00  0.0000000000000D+00  0.0000000000000D+00
   299  2.9800000000000D+00  0.0000000000000D+00  0.0000000000000D+00
   300  2.9900000000000D+00  0.0000000000000D+00  0.0000000000000D+00
   301  3.0000000000000D+00  0.0000000000000D+00  0.0000000000000D+00
   302  3.0100000000000D+00  0.0000000000000D+00  0.0000000000000D+00
   303  3.0200000000000D+00  0.0000000000000D+00  0.0000000000000D+00
   304  3.0300000000000D+00  0.0000000000000D+00  0.0000000000000D+00
   305  3.0400000000000D+00  0.0000000000000D+00  0.0000000000000D+00
   306  3.0500000000000D+00  0.0000000000000D+00  0.0000000000000D+00
   307  3.0600000000000D+00  0.0000000000000D+00  0.0000000000000D+00
   308  3.0700000000000D+00  0.0000000000000D+00  0.0000000000000D+00
   309  3.0800000000000D+00  0.0000000000000D+00  0.0000000000000D+00
   310  3.0900000000000D+00  0.0000000000000D+00  0.0000000000000D+00
   311  3.1000000000000D+00  0.0000000000000D+00  0.0000000000000D+00
   312  3.1100000000000D+00  0.0000000000000D+00  0.0000000000000D+00
   313  3.1200000000000D+00  0.0000000000000D+00  0.0000000000000D+00
   314  3.1300000000000D+00  0.0000000000000D+00  0.0000000000000D+00
   315  3.1400000000000D+00  0.0000000000000D+00  0.0000000000000D+00
   316  3.1500000000000D+00  0.0000000000000D+00  0.0000000000000D+00
   317  3.1600000000000D+00  0.0000000000000D+00  0.0000000000000D+00
   318  3.1700000000000D+00  0.0000000000000D+00  0.0000000000000D+00
   319  3.1800000000000D+00  0.0000000000000D+00  0.0000000000000D+00
   320  3.1900000000000D+00  0.0000000000000D+00  0.0000000000000D+00
   321  3.2000000000000D+00  0.0000000000000D+00  0.0000000000000D+00
   322  3.2100000000000D+00  0.0000000000000D+00  0.0000000000000D+00
   323  3.2200000000000D+00  0.0000000000000D+00  0.0000000000000D+00
   324  3.2300000000000D+00  0.0000000000000D+00  0.0000000000000D+00
   325  3.2400000000000D+00  0.0000000000000D+00  0.0000000000000D+00
   326  3.2500000000000D+00  0.0000000000000D+00  0.0000000000000D+00
   327  3.2600000000000D+00  0.0000000000000D+00  0.0000000000000D+00
   328  3.2700000000000D+00  0.0000000000000D+00  0.0000000000000D+00
   329  3.2800000000000D+00  0.0000000000000D+00  0.0000000000000D+00
   330  3.2900000000000D+00  0.0000000000000D+00  0.0000000000000D+00
   331  3.3000000000000D+00  0.0000000000000D+00  0.0000000000000D+00
   332  3.3100000000000D+00  0.0000000000000D+00  0.0000000000000D+00
   333  3.3200000000000D+00  0.0000000000000D+00  0.0000000000000D+00
   334  3.3300000000000D+00  0.0000000000000D+00  0.0000000000000D+00
   335  3.3400000000000D+00  0.0000000000000D+00  0.0000000000000D+00
   336  3.3500000000000D+00  0.0000000000000D+00  0.0000000000000D+00
   337  3.3600000000000D+00  0.0000000000000D+00  0.0000000000000D+00
   338  3.3700000000000D+00  0.0000000000000D+00  0.0000000000000D+00
   339  3.3800000000000D+00  0.0000000000000D+00  0.0000000000000D+00
   340  3.3900000000000D+00  0.0000000000000D+00  0.0000000000000D+00
   341  3.4000000000000D+00  0.0000000000000D+00  0.0000000000000D+00
   342  3.4100000000000D+00  0.0000000000000D+00  0.0000000000000D+00
   343  3.4200000000000D+00  0.0000000000000D+00  0.0000000000000D+00
   344  3.4300000000000D+00  0.0000000000000D+00  0.0000000000000D+00
   345  3.4400000000000D+00  0.0000000000000D+00  0.0000000000000D+00
   346  3.4500000000000D+00  0.0000000000000D+00  0.0000000000000D+00
   347  3.4600000000000D+00  0.0000000000000D+00  0.0000000000000D+00
   348  3.4700000000000D+00  0.0000000000000D+00  0.0000000000000D+00
   349  3.4800000000000D+00  0.0000000000000D+00  0.0000000000000D+00
   350  3.4900000000000D+00  0.0000000000000D+00  0.0000000000000D+00
   351  3.5000000000000D+00  0.0000000000000D+00  0.0000000000000D+00
   352  3.5100000000000D+00  0.0000000000000D+00  0.0000000000000D+00
   353  3.5200000000000D+00  0.0000000000000D+00  0.0000000000000D+00
   354  3.5300000000000D+00  0.0000000000000D+00  0.0000000000000D+00
   355  3.5400000000000D+00  0.0000000000000D+00  0.0000000000000D+00
   356  3.5500000000000D+00  0.0000000000000D+00  0.0000000000000D+00
   357  3.5600000000000D+00  0.0000000000000D+00  0.0000000000000D+00
   358  3.5700000000000D+00  0.0000000000000D+00  0.0000000000000D+00
   359  3.5800000000000D+00  0.0000000000000D+00  0.0000000000000D+00
   360  3.5900000000000D+00  0.0000000000000D+00  0.0000000000000D+00
   361  3.6000000000000D+00  0.0000000000000D+00  0.0000000000000D+00
   362  3.6100000000000D+00  0.0000000000000D+00  0.0000000000000D+00
   363  3.6200000000000D+00  0.0000000000000D+00  0.0000000000000D+00
   364  3.6300000000000D+00  0.0000000000000D+00  0.0000000000000D+00
   365  3.6400000000000D+00  0.0000000000000D+00  0.0000000000000D+00
   366  3.6500000000000D+00  0.0000000000000D+00  0.0000000000000D+00
   367  3.6600000000000D+00  0.0000000000000D+00  0.0000000000000D+00
   368  3.6700000000000D+00  0.0000000000000D+00  0.0000000000000D+00
   369  3.6800000000000D+00  0.0000000000000D+00  0.0000000000000D+00
   370  3.6900000000000D+00  0.0000000000000D+00  0.0000000000000D+00
   371  3.7000000000000D+00  0.0000000000000D+00  0.0000000000000D+00
   372  3.7100000000000D+00  0.0000000000000D+00  0.0000000000000D+00
   373  3.7200000000000D+00  0.0000000000000D+00  0.0000000000000D+00
   374  3.7300000000000D+00  0.0000000000000D+00  0.0000000000000D+00
   375  3.7400000000000D+00  0.0000000000000D+00  0.0000000000000D+00
   376  3.7500000000000D+00  0.0000000000000D+00  0.0000000000000D+00
   377  3.7600000000000D+00  0.0000000000000D+00  0.0000000000000D+00
   378  3.7700000000000D+00  0.0000000000000D+00  0.0000000000000D+00
   379  3.7800000000000D+00  0.0000000000000D+00  0.0000000000000D+00
   380  3.7900000000000D+00  0.0000000000000D+00  0.0000000000000D+00
   381  3.8000000000000D+00  0.0000000000000D+00  0.0000000000000D+00
   382  3.8100000000000D+00  0.0000000000000D+00  0.0000000000000D+00
   383  3.8200000000000D+00  0.0000000000000D+00  0.0000000000000D+00
   384  3.8300000000000D+00  0.0000000000000D+00  0.0000000000000D+00
   385  3.8400000000000D+00  0.0000000000000D+00  0.0000000000000D+00
   386  3.8500000000000D+00  0.0000000000000D+00  0.0000000000000D+00
   387  3.8600000000000D+00  0.0000000000000D+00  0.0000000000000D+00
   388  3.8700000000000D+00  0.0000000000000D+00  0.0000000000000D+00
   389  3.8800000000000D+00  0.0000000000000D+00  0.0000000000000D+00
   390  3.8900000000000D+00  0.0000000000000D+00  0.0000000000000D+00
   391  3.9000000000000D+00  0.0000000000000D+00  0.0000000000000D+00
   392  3.9100000000000D+00  0.0000000000000D+00  0.0000000000000D+00
   393  3.9200000000000D+00  0.0000000000000D+00  0.0000000000000D+00
   394  3.9300000000000D+00  0.0000000000000D+00  0.0000000000000D+00
   395  3.9400000000000D+00  0.0000000000000D+00  0.0000000000000D+00
   396  3.9500000000000D+00  0.0000000000000D+00  0.0000000000000D+00
   397  3.9600000000000D+00  0.0000000000000D+00  0.0000000000000D+00
   398  3.9700000000000D+00  0.0000000000000D+00  0.0000000000000D+00
   399  3.9800000000000D+00  0.0000000000000D+00  0.0000000000000D+00
   400  3.9900000000000D+00  0.0000000000000D+00  0.0000000000000D+00
   401  4.0000000000000D+00  0.0000000000000D+00  0.0000000000000D+00
   402  4.0100000000000D+00  0.0000000000000D+00  0.0000000000000D+00
   403  4.0200000000000D+00  0.0000000000000D+00  0.0000000000000D+00
   404  4.0300000000000D+00  0.0000000000000D+00  0.0000000000000D+00
   405  4.0400000000000D+00  0.0000000000000D+00  0.0000000000000D+00
   406  4.0500000000000D+00  0.0000000000000D+00  0.0000000000000D+00
   407  4.0600000000000D+00  0.0000000000000D+00  0.0000000000000D+00
   408  4.0700000000000D+00  0.0000000000000D+00  0.0000000000000D+00
   409  4.0800000000000D+00  0.0000000000000D+00  0.0000000000000D+00
   410  4.0900000000000D+00  0.0000000000000D+00  0.0000000000000D+00
   411  4.1000000000000D+00  0.0000000000000D+00  0.0000000000000D+00
   412  4.1100000000000D+00  0.0000000000000D+00  0.0000000000000D+00
   413  4.1200000000000D+00  0.0000000000000D+00  0.0000000000000D+00
   414  4.1300000000000D+00  0.0000000000000D+00  0.0000000000000D+00
   415  4.1400000000000D+00  0.0000000000000D+00  0.0000000000000D+00
   416  4.1500000000000D+00  0.0000000000000D+00  0.0000000000000D+00
   417  4.1600000000000D+00  0.0000000000000D+00  0.0000000000000D+00
   418  4.1700000000000D+00  0.0000000000000D+00  0.0000000000000D+00
   419  4.1800000000000D+00  0.0000000000000D+00  0.0000000000000D+00
   420  4.1900000000000D+00  0.0000000000000D+00  0.0000000000000D+00
   421  4.2000000000000D+00  0.0000000000000D+00  0.0000000000000D+00
   422  4.2100000000000D+00  0.0000000000000D+00  0.0000000000000D+00