Se    ONCVPSP-3.3.0  r_core=   1.81943   1.55807   2.07453
     34.0000      6.0000      220117    zatom,zion,pspd
     8      11   2     4   600     0    pspcod,pspxc,lmax,lloc,mmax,r2well
  5.99000000  0.00000000  0.00000000    rchrg fchrg qchrg
     2     2     2     0     0    nproj
     1     1           extension_switch
   0                         1.1275094124650D+01  1.2413822289277D+00
     1  0.0000000000000D+00 -6.6232652695675D-10  1.0781148751526D-09
     2  1.0000000000000D-02  4.8065121062692D-02 -2.7099571412980D-02
     3  2.0000000000000D-02  9.6024815961965D-02 -5.4044974203686D-02
     4  3.0000000000000D-02  1.4377462699996D-01 -8.0683652168225D-02
     5  4.0000000000000D-02  1.9121202044160D-01 -1.0686625263606D-01
     6  5.0000000000000D-02  2.3823731624598D-01 -1.3244817525645D-01
     7  6.0000000000000D-02  2.8475457957446D-01 -1.5729105798412D-01
     8  7.0000000000000D-02  3.3067246212201D-01 -1.8126418061287D-01
     9  8.0000000000000D-02  3.7590498198074D-01 -2.0424576728363D-01
    10  9.0000000000000D-02  4.2037223155668D-01 -2.2612417071562D-01
    11  1.0000000000000D-01  4.6400100401208D-01 -2.4679892245797D-01
    12  1.1000000000000D-01  5.0672532978382D-01 -2.6618163521567D-01
    13  1.2000000000000D-01  5.4848691592092D-01 -2.8419674524474D-01
    14  1.3000000000000D-01  5.8923548227387D-01 -3.0078208491423D-01
    15  1.4000000000000D-01  6.2892898994085D-01 -3.1588927776789D-01
    16  1.5000000000000D-01  6.6753375881195D-01 -3.2948395076003D-01
    17  1.6000000000000D-01  7.0502447253449D-01 -3.4154576075701D-01
    18  1.7000000000000D-01  7.4138407073156D-01 -3.5206823485751D-01
    19  1.8000000000000D-01  7.7660352982187D-01 -3.6105842655980D-01
    20  1.9000000000000D-01  8.1068153529336D-01 -3.6853639226119D-01
    21  2.0000000000000D-01  8.4362404975526D-01 -3.7453449498138D-01
    22  2.1000000000000D-01  8.7544378251504D-01 -3.7909654452753D-01
    23  2.2000000000000D-01  9.0615956777955D-01 -3.8227678553378D-01
    24  2.3000000000000D-01  9.3579565984479D-01 -3.8413874688279D-01
    25  2.4000000000000D-01  9.6438095480112D-01 -3.8475396792550D-01
    26  2.5000000000000D-01  9.9194814932368D-01 -3.8420061863098D-01
    27  2.6000000000000D-01  1.0185328480278D+00 -3.8256203230022D-01
    28  2.7000000000000D-01  1.0441726316339D+00 -3.7992517074387D-01
    29  2.8000000000000D-01  1.0689060987965D+00 -3.7637904283867D-01
    30  2.9000000000000D-01  1.0927718948938D+00 -3.7201309812501D-01
    31  3.0000000000000D-01  1.1158077413524D+00 -3.6691561757964D-01
    32  3.1000000000000D-01  1.1380494791754D+00 -3.6117212388318D-01
    33  3.2000000000000D-01  1.1595301402661D+00 -3.5486383340062D-01
    34  3.3000000000000D-01  1.1802790598811D+00 -3.4806617170205D-01
    35  3.4000000000000D-01  1.2003210431152D+00 -3.4084737377469D-01
    36  3.5000000000000D-01  1.2196755977155D+00 -3.3326718912303D-01
    37  3.6000000000000D-01  1.2383562447584D+00 -3.2537571073169D-01
    38  3.7000000000000D-01  1.2563699177961D+00 -3.1721234538941D-01
    39  3.8000000000000D-01  1.2737164600144D+00 -3.0880494115979D-01
    40  3.9000000000000D-01  1.2903882277447D+00 -3.0016908585518D-01
    41  4.0000000000000D-01  1.3063698073524D+00 -2.9130758824739D-01
    42  4.1000000000000D-01  1.3216378511101D+00 -2.8221015145863D-01
    43  4.2000000000000D-01  1.3361610361556D+00 -2.7285324554556D-01
    44  4.3000000000000D-01  1.3499001490710D+00 -2.6320018374936D-01
    45  4.4000000000000D-01  1.3628082969988D+00 -2.5320140426526D-01
    46  4.5000000000000D-01  1.3748312445723D+00 -2.4279495671992D-01
    47  4.6000000000000D-01  1.3859078742902D+00 -2.3190718986649D-01
    48  4.7000000000000D-01  1.3959707663301D+00 -2.2045363434985D-01
    49  4.8000000000000D-01  1.4049468922024D+00 -2.0834007179109D-01
    50  4.9000000000000D-01  1.4127584151036D+00 -1.9546377892427D-01
    51  5.0000000000000D-01  1.4193235883643D+00 -1.8171493312241D-01
    52  5.1000000000000D-01  1.4245577420172D+00 -1.6697816340376D-01
    53  5.2000000000000D-01  1.4283743462558D+00 -1.5113422894391D-01
    54  5.3000000000000D-01  1.4306861394249D+00 -1.3406180526039D-01
    55  5.4000000000000D-01  1.4314063072052D+00 -1.1563935660882D-01
    56  5.5000000000000D-01  1.4304496988276D+00 -9.5747071758805D-02
    57  5.6000000000000D-01  1.4277340655013D+00 -7.4268839215005D-02
    58  5.7000000000000D-01  1.4231813057619D+00 -5.1094237140687D-02
    59  5.8000000000000D-01  1.4167187021614D+00 -2.6120512729084D-02
    60  5.9000000000000D-01  1.4082801336204D+00  7.4547443107739D-04
    61  6.0000000000000D-01  1.3978072478653D+00  2.9585370334905D-02
    62  6.1000000000000D-01  1.3852505786607D+00  6.0467530795583D-02
    63  6.2000000000000D-01  1.3705705930354D+00  9.3445336097071D-02
    64  6.3000000000000D-01  1.3537386543700D+00  1.2855563918581D-01
    65  6.4000000000000D-01  1.3347378880698D+00  1.6581736917077D-01
    66  6.5000000000000D-01  1.3135639375703D+00  2.0523031027957D-01
    67  6.6000000000000D-01  1.2902255996069D+00  2.4677407453280D-01
    68  6.7000000000000D-01  1.2647453290159D+00  2.9040728426250D-01
    69  6.8000000000000D-01  1.2371596047966D+00  3.3606697825448D-01
    70  6.9000000000000D-01  1.2075191507392D+00  3.8366825276659D-01
    71  7.0000000000000D-01  1.1758890056013D+00  4.3310414596247D-01
    72  7.1000000000000D-01  1.1423484395653D+00  4.8424577148571D-01
    73  7.2000000000000D-01  1.1069907155116D+00  5.3694270397188D-01
    74  7.3000000000000D-01  1.0699226954797D+00  5.9102361632384D-01
    75  7.4000000000000D-01  1.0312642945387D+00  6.4629716556621D-01
    76  7.5000000000000D-01  9.9114778612557D-01  7.0255312110524D-01
    77  7.6000000000000D-01  9.4971696470876D-01  7.5956372628325D-01
    78  7.7000000000000D-01  9.0712617337916D-01  8.1708528126060D-01
    79  7.8000000000000D-01  8.6353920563708D-01  8.7485993252553D-01
    80  7.9000000000000D-01  8.1912809220802D-01  9.3261765175528D-01
    81  8.0000000000000D-01  7.7407178516820D-01  9.9007838435936D-01
    82  8.1000000000000D-01  7.2855475296451D-01  1.0469543458719D+00
    83  8.2000000000000D-01  6.8276550107266D-01  1.1029524424231D+00
    84  8.3000000000000D-01  6.3689503401615D-01  1.1577767898734D+00
    85  8.4000000000000D-01  5.9113527527114D-01  1.2111313048259D+00
    86  8.5000000000000D-01  5.4567746218852D-01  1.2627223396823D+00
    87  8.6000000000000D-01  5.0071053346978D-01  1.3122613331769D+00
    88  8.7000000000000D-01  4.5641952692954D-01  1.3594674474324D+00
    89  8.8000000000000D-01  4.1298400526289D-01  1.4040701625286D+00
    90  8.9000000000000D-01  3.7057652730834D-01  1.4458117998675D+00
    91  9.0000000000000D-01  3.2936118185938D-01  1.4844499462533D+00
    92  9.1000000000000D-01  2.8949220043389D-01  1.5197597515740D+00
    93  9.2000000000000D-01  2.5111266456177D-01  1.5515360742761D+00
    94  9.3000000000000D-01  2.1435332213144D-01  1.5795954504093D+00
    95  9.4000000000000D-01  1.7933152610726D-01  1.6037778639421D+00
    96  9.5000000000000D-01  1.4615030756640D-01  1.6239482982040D+00
    97  9.6000000000000D-01  1.1489759347677D-01  1.6399980507292D+00
    98  9.7000000000000D-01  8.5645577985317D-02  1.6518457964105D+00
    99  9.8000000000000D-01  5.8450254223792D-02  1.6594383866886D+00
   100  9.9000000000000D-01  3.3351111789327D-02  1.6627513754725D+00
   101  1.0000000000000D+00  1.0371003141466D-02  1.6617892655689D+00
   102  1.0100000000000D+00 -1.0483819835006D-02  1.6565854726197D+00
   103  1.0200000000000D+00 -2.9223499733794D-02  1.6472020065939D+00
   104  1.0300000000000D+00 -4.5874200739457D-02  1.6337288743123D+00
   105  1.0400000000000D+00 -6.0477573533704D-02  1.6162832094908D+00
   106  1.0500000000000D+00 -7.3090064505980D-02  1.5950081399437D+00
   107  1.0600000000000D+00 -8.3782077613689D-02  1.5700714046049D+00
   108  1.0700000000000D+00 -9.2636998907676D-02  1.5416637357903D+00
   109  1.0800000000000D+00 -9.9750095335845D-02  1.5099970247749D+00
   110  1.0900000000000D+00 -1.0522730096325D-01  1.4753022913191D+00
   111  1.1000000000000D+00 -1.0918390495437D-01  1.4378274798113D+00
   112  1.1100000000000D+00 -1.1174315686052D-01  1.3978351067503D+00
   113  1.1200000000000D+00 -1.1303480556964D-01  1.3555997856955D+00
   114  1.1300000000000D+00 -1.1319358916599D-01  1.3114056573925D+00
   115  1.1400000000000D+00 -1.1235769336981D-01  1.2655437535820D+00
   116  1.1500000000000D+00 -1.1066719652802D-01  1.2183093236295D+00
   117  1.1600000000000D+00 -1.0826251924649D-01  1.1699991534158D+00
   118  1.1700000000000D+00 -1.0528289664767D-01  1.1209089059272D+00
   119  1.1800000000000D+00 -1.0186489084375D-01  1.0713305124750D+00
   120  1.1900000000000D+00 -9.8140960482202D-02  1.0215496424508D+00
   121  1.2000000000000D+00 -9.4238103929033D-02  9.7184327914023D-01
   122  1.2100000000000D+00 -9.0276591140418D-02  9.2247742688587D-01
   123  1.2200000000000D+00 -8.6368798217230D-02  8.7370497328511D-01
   124  1.2300000000000D+00 -8.2618157683540D-02  8.2576372867327D-01
   125  1.2400000000000D+00 -7.9118235751339D-02  7.7887466243483D-01
   126  1.2500000000000D+00 -7.5951945898585D-02  7.3324035267841D-01
   127  1.2600000000000D+00 -7.3190906920571D-02  6.8904366399712D-01
   128  1.2700000000000D+00 -7.0894951849591D-02  6.4644666530340D-01
   129  1.2800000000000D+00 -6.9111791187614D-02  6.0558979507771D-01
   130  1.2900000000000D+00 -6.7876833119273D-02  5.6659128013439D-01
   131  1.3000000000000D+00 -6.7213161391972D-02  5.2954681090353D-01
   132  1.3100000000000D+00 -6.7131668038845D-02  4.9452947061309D-01
   133  1.3200000000000D+00 -6.7631338239650D-02  4.6158991593664D-01
   134  1.3300000000000D+00 -6.8699681811496D-02  4.3075680221483D-01
   135  1.3400000000000D+00 -7.0313302822266D-02  4.0203744145788D-01
   136  1.3500000000000D+00 -7.2438599882826D-02  3.7541868308134D-01
   137  1.3600000000000D+00 -7.5032585470649D-02  3.5086800050501D-01
   138  1.3700000000000D+00 -7.8043811814872D-02  3.2833476526109D-01
   139  1.3800000000000D+00 -8.1413391548860D-02  3.0775169151085D-01
   140  1.3900000000000D+00 -8.5076096728416D-02  2.8903642605683D-01
   141  1.4000000000000D+00 -8.8961522140417D-02  2.7209326278689D-01
   142  1.4100000000000D+00 -9.2995296231826D-02  2.5681495623132D-01
   143  1.4200000000000D+00 -9.7100322967135D-02  2.4308460837335D-01
   144  1.4300000000000D+00 -1.0119803794661D-01  2.3077760339870D-01
   145  1.4400000000000D+00 -1.0520966139070D-01  2.1976356301452D-01
   146  1.4500000000000D+00 -1.0905743173682D-01  2.0990829714475D-01
   147  1.4600000000000D+00 -1.1266580204830D-01  2.0107572210477D-01
   148  1.4700000000000D+00 -1.1596258572327D-01  1.9312972451661D-01
   149  1.4800000000000D+00 -1.1888003275714D-01  1.8593594173182D-01
   150  1.4900000000000D+00 -1.2135582654093D-01  1.7936344192285D-01
   151  1.5000000000000D+00 -1.2333398446760D-01  1.7328627745281D-01
   152  1.5100000000000D+00 -1.2476565199736D-01  1.6758489239224D-01
   153  1.5200000000000D+00 -1.2560978625361D-01  1.6214738880997D-01
   154  1.5300000000000D+00 -1.2583369253175D-01  1.5687054813947D-01
   155  1.5400000000000D+00 -1.2541349355036D-01  1.5166087256767D-01
   156  1.5500000000000D+00 -1.2433435804298D-01  1.4643510197216D-01
   157  1.5600000000000D+00 -1.2259056354279D-01  1.4112040978465D-01
   158  1.5700000000000D+00 -1.2018588050523D-01  1.3565599758834D-01
   159  1.5800000000000D+00 -1.1713373570755D-01  1.2999417410932D-01
   160  1.5900000000000D+00 -1.1345730270300D-01  1.2410135742004D-01
   161  1.6000000000000D+00 -1.0918938195091D-01  1.1795861959503D-01
   162  1.6100000000000D+00 -1.0437180461142D-01  1.1156084236556D-01
   163  1.6200000000000D+00 -9.9054818950457D-02  1.0491604460220D-01
   164  1.6300000000000D+00 -9.3296391203402D-02  9.8044655676912D-02
   165  1.6400000000000D+00 -8.7161365527893D-02  9.0978495638420D-02
   166  1.6500000000000D+00 -8.0720544075950D-02  8.3759659473538D-02
   167  1.6600000000000D+00 -7.4049681208434D-02  7.6439255682259D-02
   168  1.6700000000000D+00 -6.7228412014119D-02  6.9076039809914D-02
   169  1.6800000000000D+00 -6.0339128560606D-02  6.1734959560361D-02
   170  1.6900000000000D+00 -5.3465819415723D-02  5.4485634272522D-02
   171  1.7000000000000D+00 -4.6692889074316D-02  4.7400792311239D-02
   172  1.7100000000000D+00 -4.0103971723229D-02  4.0554687765049D-02
   173  1.7200000000000D+00 -3.3780758337185D-02  3.4021523842313D-02
   174  1.7300000000000D+00 -2.7801849155299D-02  2.7873900891437D-02
   175  1.7400000000000D+00 -2.2241651845068D-02  2.2181318764892D-02
   176  1.7500000000000D+00 -1.7169335100656D-02  1.7008747984750D-02
   177  1.7600000000000D+00 -1.2649590692162D-02  1.2416572890478D-02
   178  1.7700000000000D+00 -8.7357050513343D-03  8.4549291870446D-03
   179  1.7800000000000D+00 -5.4660986817768D-03  5.1617826585997D-03
   180  1.7900000000000D+00 -2.8909623168213D-03  2.5788062396026D-03
   181  1.8000000000000D+00 -1.0743342608028D-03  7.4670072268642D-04
   182  1.8100000000000D+00 -1.7029456953220D-05 -3.3271145611613D-04
   183  1.8200000000000D+00  3.7907033563542D-04 -6.9056630142399D-04
   184  1.8300000000000D+00  2.8131054542198D-04 -4.4715317610301D-04
   185  1.8400000000000D+00  2.8397955593057D-05 -4.3322090878473D-05
   186  1.8500000000000D+00 -6.7000667792582D-05  1.0057009506369D-04
   187  1.8600000000000D+00 -2.6009858150374D-05  3.8512598190618D-05
   188  1.8700000000000D+00  1.2088347220306D-05 -1.8724695802467D-05
   189  1.8800000000000D+00  9.3517926185584D-06 -1.4381586422583D-05
   190  1.8900000000000D+00 -6.5799650465555D-07  1.2181434618386D-06
   191  1.9000000000000D+00 -9.3823625531269D-07  1.7369489837448D-06
   192  1.9100000000000D+00  0.0000000000000D+00  0.0000000000000D+00
   193  1.9200000000000D+00  0.0000000000000D+00  0.0000000000000D+00
   194  1.9300000000000D+00  0.0000000000000D+00  0.0000000000000D+00
   195  1.9400000000000D+00  0.0000000000000D+00  0.0000000000000D+00
   196  1.9500000000000D+00  0.0000000000000D+00  0.0000000000000D+00
   197  1.9600000000000D+00  0.0000000000000D+00  0.0000000000000D+00
   198  1.9700000000000D+00  0.0000000000000D+00  0.0000000000000D+00
   199  1.9800000000000D+00  0.0000000000000D+00  0.0000000000000D+00
   200  1.9900000000000D+00  0.0000000000000D+00  0.0000000000000D+00
   201  2.0000000000000D+00  0.0000000000000D+00  0.0000000000000D+00
   202  2.0100000000000D+00  0.0000000000000D+00  0.0000000000000D+00
   203  2.0200000000000D+00  0.0000000000000D+00  0.0000000000000D+00
   204  2.0300000000000D+00  0.0000000000000D+00  0.0000000000000D+00
   205  2.0400000000000D+00  0.0000000000000D+00  0.0000000000000D+00
   206  2.0500000000000D+00  0.0000000000000D+00  0.0000000000000D+00
   207  2.0600000000000D+00  0.0000000000000D+00  0.0000000000000D+00
   208  2.0700000000000D+00  0.0000000000000D+00  0.0000000000000D+00
   209  2.0800000000000D+00  0.0000000000000D+00  0.0000000000000D+00
   210  2.0900000000000D+00  0.0000000000000D+00  0.0000000000000D+00
   211  2.1000000000000D+00  0.0000000000000D+00  0.0000000000000D+00
   212  2.1100000000000D+00  0.0000000000000D+00  0.0000000000000D+00
   213  2.1200000000000D+00  0.0000000000000D+00  0.0000000000000D+00
   214  2.1300000000000D+00  0.0000000000000D+00  0.0000000000000D+00
   215  2.1400000000000D+00  0.0000000000000D+00  0.0000000000000D+00
   216  2.1500000000000D+00  0.0000000000000D+00  0.0000000000000D+00
   217  2.1600000000000D+00  0.0000000000000D+00  0.0000000000000D+00
   218  2.1700000000000D+00  0.0000000000000D+00  0.0000000000000D+00
   219  2.1800000000000D+00  0.0000000000000D+00  0.0000000000000D+00
   220  2.1900000000000D+00  0.0000000000000D+00  0.0000000000000D+00
   221  2.2000000000000D+00  0.0000000000000D+00  0.0000000000000D+00
   222  2.2100000000000D+00  0.0000000000000D+00  0.0000000000000D+00
   223  2.2200000000000D+00  0.0000000000000D+00  0.0000000000000D+00
   224  2.2300000000000D+00  0.0000000000000D+00  0.0000000000000D+00
   225  2.2400000000000D+00  0.0000000000000D+00  0.0000000000000D+00
   226  2.2500000000000D+00  0.0000000000000D+00  0.0000000000000D+00
   227  2.2600000000000D+00  0.0000000000000D+00  0.0000000000000D+00
   228  2.2700000000000D+00  0.0000000000000D+00  0.0000000000000D+00
   229  2.2800000000000D+00  0.0000000000000D+00  0.0000000000000D+00
   230  2.2900000000000D+00  0.0000000000000D+00  0.0000000000000D+00
   231  2.3000000000000D+00  0.0000000000000D+00  0.0000000000000D+00
   232  2.3100000000000D+00  0.0000000000000D+00  0.0000000000000D+00
   233  2.3200000000000D+00  0.0000000000000D+00  0.0000000000000D+00
   234  2.3300000000000D+00  0.0000000000000D+00  0.0000000000000D+00
   235  2.3400000000000D+00  0.0000000000000D+00  0.0000000000000D+00
   236  2.3500000000000D+00  0.0000000000000D+00  0.0000000000000D+00
   237  2.3600000000000D+00  0.0000000000000D+00  0.0000000000000D+00
   238  2.3700000000000D+00  0.0000000000000D+00  0.0000000000000D+00
   239  2.3800000000000D+00  0.0000000000000D+00  0.0000000000000D+00
   240  2.3900000000000D+00  0.0000000000000D+00  0.0000000000000D+00
   241  2.4000000000000D+00  0.0000000000000D+00  0.0000000000000D+00
   242  2.4100000000000D+00  0.0000000000000D+00  0.0000000000000D+00
   243  2.4200000000000D+00  0.0000000000000D+00  0.0000000000000D+00
   244  2.4300000000000D+00  0.0000000000000D+00  0.0000000000000D+00
   245  2.4400000000000D+00  0.0000000000000D+00  0.0000000000000D+00
   246  2.4500000000000D+00  0.0000000000000D+00  0.0000000000000D+00
   247  2.4600000000000D+00  0.0000000000000D+00  0.0000000000000D+00
   248  2.4700000000000D+00  0.0000000000000D+00  0.0000000000000D+00
   249  2.4800000000000D+00  0.0000000000000D+00  0.0000000000000D+00
   250  2.4900000000000D+00  0.0000000000000D+00  0.0000000000000D+00
   251  2.5000000000000D+00  0.0000000000000D+00  0.0000000000000D+00
   252  2.5100000000000D+00  0.0000000000000D+00  0.0000000000000D+00
   253  2.5200000000000D+00  0.0000000000000D+00  0.0000000000000D+00
   254  2.5300000000000D+00  0.0000000000000D+00  0.0000000000000D+00
   255  2.5400000000000D+00  0.0000000000000D+00  0.0000000000000D+00
   256  2.5500000000000D+00  0.0000000000000D+00  0.0000000000000D+00
   257  2.5600000000000D+00  0.0000000000000D+00  0.0000000000000D+00
   258  2.5700000000000D+00  0.0000000000000D+00  0.0000000000000D+00
   259  2.5800000000000D+00  0.0000000000000D+00  0.0000000000000D+00
   260  2.5900000000000D+00  0.0000000000000D+00  0.0000000000000D+00
   261  2.6000000000000D+00  0.0000000000000D+00  0.0000000000000D+00
   262  2.6100000000000D+00  0.0000000000000D+00  0.0000000000000D+00
   263  2.6200000000000D+00  0.0000000000000D+00  0.0000000000000D+00
   264  2.6300000000000D+00  0.0000000000000D+00  0.0000000000000D+00
   265  2.6400000000000D+00  0.0000000000000D+00  0.0000000000000D+00
   266  2.6500000000000D+00  0.0000000000000D+00  0.0000000000000D+00
   267  2.6600000000000D+00  0.0000000000000D+00  0.0000000000000D+00
   268  2.6700000000000D+00  0.0000000000000D+00  0.0000000000000D+00
   269  2.6800000000000D+00  0.0000000000000D+00  0.0000000000000D+00
   270  2.6900000000000D+00  0.0000000000000D+00  0.0000000000000D+00
   271  2.7000000000000D+00  0.0000000000000D+00  0.0000000000000D+00
   272  2.7100000000000D+00  0.0000000000000D+00  0.0000000000000D+00
   273  2.7200000000000D+00  0.0000000000000D+00  0.0000000000000D+00
   274  2.7300000000000D+00  0.0000000000000D+00  0.0000000000000D+00
   275  2.7400000000000D+00  0.0000000000000D+00  0.0000000000000D+00
   276  2.7500000000000D+00  0.0000000000000D+00  0.0000000000000D+00
   277  2.7600000000000D+00  0.0000000000000D+00  0.0000000000000D+00
   278  2.7700000000000D+00  0.0000000000000D+00  0.0000000000000D+00
   279  2.7800000000000D+00  0.0000000000000D+00  0.0000000000000D+00
   280  2.7900000000000D+00  0.0000000000000D+00  0.0000000000000D+00
   281  2.8000000000000D+00  0.0000000000000D+00  0.0000000000000D+00
   282  2.8100000000000D+00  0.0000000000000D+00  0.0000000000000D+00
   283  2.8200000000000D+00  0.0000000000000D+00  0.0000000000000D+00
   284  2.8300000000000D+00  0.0000000000000D+00  0.0000000000000D+00
   285  2.8400000000000D+00  0.0000000000000D+00  0.0000000000000D+00
   286  2.8500000000000D+00  0.0000000000000D+00  0.0000000000000D+00
   287  2.8600000000000D+00  0.0000000000000D+00  0.0000000000000D+00
   288  2.8700000000000D+00  0.0000000000000D+00  0.0000000000000D+00
   289  2.8800000000000D+00  0.0000000000000D+00  0.0000000000000D+00
   290  2.8900000000000D+00  0.0000000000000D+00  0.0000000000000D+00
   291  2.9000000000000D+00  0.0000000000000D+00  0.0000000000000D+00
   292  2.9100000000000D+00  0.0000000000000D+00  0.0000000000000D+00
   293  2.9200000000000D+00  0.0000000000000D+00  0.0000000000000D+00
   294  2.9300000000000D+00  0.0000000000000D+00  0.0000000000000D+00
   295  2.9400000000000D+00  0.0000000000000D+00  0.0000000000000D+00
   296  2.9500000000000D+00  0.0000000000000D+00  0.0000000000000D+00
   297  2.9600000000000D+00  0.0000000000000D+00  0.0000000000000D+00
   298  2.9700000000000D+00  0.0000000000000D+00  0.0000000000000D+00
   299  2.9800000000000D+00  0.0000000000000D+00  0.0000000000000D+00
   300  2.9900000000000D+00  0.0000000000000D+00  0.0000000000000D+00
   301  3.0000000000000D+00  0.0000000000000D+00  0.0000000000000D+00
   302  3.0100000000000D+00  0.0000000000000D+00  0.0000000000000D+00
   303  3.0200000000000D+00  0.0000000000000D+00  0.0000000000000D+00
   304  3.0300000000000D+00  0.0000000000000D+00  0.0000000000000D+00
   305  3.0400000000000D+00  0.0000000000000D+00  0.0000000000000D+00
   306  3.0500000000000D+00  0.0000000000000D+00  0.0000000000000D+00
   307  3.0600000000000D+00  0.0000000000000D+00  0.0000000000000D+00
   308  3.0700000000000D+00  0.0000000000000D+00  0.0000000000000D+00
   309  3.0800000000000D+00  0.0000000000000D+00  0.0000000000000D+00
   310  3.0900000000000D+00  0.0000000000000D+00  0.0000000000000D+00
   311  3.1000000000000D+00  0.0000000000000D+00  0.0000000000000D+00
   312  3.1100000000000D+00  0.0000000000000D+00  0.0000000000000D+00
   313  3.1200000000000D+00  0.0000000000000D+00  0.0000000000000D+00
   314  3.1300000000000D+00  0.0000000000000D+00  0.0000000000000D+00
   315  3.1400000000000D+00  0.0000000000000D+00  0.0000000000000D+00
   316  3.1500000000000D+00  0.0000000000000D+00  0.0000000000000D+00
   317  3.1600000000000D+00  0.0000000000000D+00  0.0000000000000D+00
   318  3.1700000000000D+00  0.0000000000000D+00  0.0000000000000D+00
   319  3.1800000000000D+00  0.0000000000000D+00  0.0000000000000D+00
   320  3.1900000000000D+00  0.0000000000000D+00  0.0000000000000D+00
   321  3.2000000000000D+00  0.0000000000000D+00  0.0000000000000D+00
   322  3.2100000000000D+00  0.0000000000000D+00  0.0000000000000D+00
   323  3.2200000000000D+00  0.0000000000000D+00  0.0000000000000D+00
   324  3.2300000000000D+00  0.0000000000000D+00  0.0000000000000D+00
   325  3.2400000000000D+00  0.0000000000000D+00  0.0000000000000D+00
   326  3.2500000000000D+00  0.0000000000000D+00  0.0000000000000D+00
   327  3.2600000000000D+00  0.0000000000000D+00  0.0000000000000D+00
   328  3.2700000000000D+00  0.0000000000000D+00  0.0000000000000D+00
   329  3.2800000000000D+00  0.0000000000000D+00  0.0000000000000D+00
   330  3.2900000000000D+00  0.0000000000000D+00  0.0000000000000D+00
   331  3.3000000000000D+00  0.0000000000000D+00  0.0000000000000D+00
   332  3.3100000000000D+00  0.0000000000000D+00  0.0000000000000D+00
   333  3.3200000000000D+00  0.0000000000000D+00  0.0000000000000D+00
   334  3.3300000000000D+00  0.0000000000000D+00  0.0000000000000D+00
   335  3.3400000000000D+00  0.0000000000000D+00  0.0000000000000D+00
   336  3.3500000000000D+00  0.0000000000000D+00  0.0000000000000D+00
   337  3.3600000000000D+00  0.0000000000000D+00  0.0000000000000D+00
   338  3.3700000000000D+00  0.0000000000000D+00  0.0000000000000D+00
   339  3.3800000000000D+00  0.0000000000000D+00  0.0000000000000D+00
   340  3.3900000000000D+00  0.0000000000000D+00  0.0000000000000D+00
   341  3.4000000000000D+00  0.0000000000000D+00  0.0000000000000D+00
   342  3.4100000000000D+00  0.0000000000000D+00  0.0000000000000D+00
   343  3.4200000000000D+00  0.0000000000000D+00  0.0000000000000D+00
   344  3.4300000000000D+00  0.0000000000000D+00  0.0000000000000D+00
   345  3.4400000000000D+00  0.0000000000000D+00  0.0000000000000D+00
   346  3.4500000000000D+00  0.0000000000000D+00  0.0000000000000D+00
   347  3.4600000000000D+00  0.0000000000000D+00  0.0000000000000D+00
   348  3.4700000000000D+00  0.0000000000000D+00  0.0000000000000D+00
   349  3.4800000000000D+00  0.0000000000000D+00  0.0000000000000D+00
   350  3.4900000000000D+00  0.0000000000000D+00  0.0000000000000D+00
   351  3.5000000000000D+00  0.0000000000000D+00  0.0000000000000D+00
   352  3.5100000000000D+00  0.0000000000000D+00  0.0000000000000D+00
   353  3.5200000000000D+00  0.0000000000000D+00  0.0000000000000D+00
   354  3.5300000000000D+00  0.0000000000000D+00  0.0000000000000D+00
   355  3.5400000000000D+00  0.0000000000000D+00  0.0000000000000D+00
   356  3.5500000000000D+00  0.0000000000000D+00  0.0000000000000D+00
   357  3.5600000000000D+00  0.0000000000000D+00  0.0000000000000D+00
   358  3.5700000000000D+00  0.0000000000000D+00  0.0000000000000D+00
   359  3.5800000000000D+00  0.0000000000000D+00  0.0000000000000D+00
   360  3.5900000000000D+00  0.0000000000000D+00  0.0000000000000D+00
   361  3.6000000000000D+00  0.0000000000000D+00  0.0000000000000D+00
   362  3.6100000000000D+00  0.0000000000000D+00  0.0000000000000D+00
   363  3.6200000000000D+00  0.0000000000000D+00  0.0000000000000D+00
   364  3.6300000000000D+00  0.0000000000000D+00  0.0000000000000D+00
   365  3.6400000000000D+00  0.0000000000000D+00  0.0000000000000D+00
   366  3.6500000000000D+00  0.0000000000000D+00  0.0000000000000D+00
   367  3.6600000000000D+00  0.0000000000000D+00  0.0000000000000D+00
   368  3.6700000000000D+00  0.0000000000000D+00  0.0000000000000D+00
   369  3.6800000000000D+00  0.0000000000000D+00  0.0000000000000D+00
   370  3.6900000000000D+00  0.0000000000000D+00  0.0000000000000D+00
   371  3.7000000000000D+00  0.0000000000000D+00  0.0000000000000D+00
   372  3.7100000000000D+00  0.0000000000000D+00  0.0000000000000D+00
   373  3.7200000000000D+00  0.0000000000000D+00  0.0000000000000D+00
   374  3.7300000000000D+00  0.0000000000000D+00  0.0000000000000D+00
   375  3.7400000000000D+00  0.0000000000000D+00  0.0000000000000D+00
   376  3.7500000000000D+00  0.0000000000000D+00  0.0000000000000D+00
   377  3.7600000000000D+00  0.0000000000000D+00  0.0000000000000D+00
   378  3.7700000000000D+00  0.0000000000000D+00  0.0000000000000D+00
   379  3.7800000000000D+00  0.0000000000000D+00  0.0000000000000D+00
   380  3.7900000000000D+00  0.0000000000000D+00  0.0000000000000D+00
   381  3.8000000000000D+00  0.0000000000000D+00  0.0000000000000D+00
   382  3.8100000000000D+00  0.0000000000000D+00  0.0000000000000D+00
   383  3.8200000000000D+00  0.0000000000000D+00  0.0000000000000D+00
   384  3.8300000000000D+00  0.0000000000000D+00  0.0000000000000D+00
   385  3.8400000000000D+00  0.0000000000000D+00  0.0000000000000D+00
   386  3.8500000000000D+00  0.0000000000000D+00  0.0000000000000D+00
   387  3.8600000000000D+00  0.0000000000000D+00  0.0000000000000D+00
   388  3.8700000000000D+00  0.0000000000000D+00  0.0000000000000D+00
   389  3.8800000000000D+00  0.0000000000000D+00  0.0000000000000D+00
   390  3.8900000000000D+00  0.0000000000000D+00  0.0000000000000D+00
   391  3.9000000000000D+00  0.0000000000000D+00  0.0000000000000D+00
   392  3.9100000000000D+00  0.0000000000000D+00  0.0000000000000D+00
   393  3.9200000000000D+00  0.0000000000000D+00  0.0000000000000D+00
   394  3.9300000000000D+00  0.0000000000000D+00  0.0000000000000D+00
   395  3.9400000000000D+00  0.0000000000000D+00  0.0000000000000D+00
   396  3.9500000000000D+00  0.0000000000000D+00  0.0000000000000D+00
   397  3.9600000000000D+00  0.0000000000000D+00  0.0000000000000D+00
   398  3.9700000000000D+00  0.0000000000000D+00  0.0000000000000D+00
   399  3.9800000000000D+00  0.0000000000000D+00  0.0000000000000D+00
   400  3.9900000000000D+00  0.0000000000000D+00  0.0000000000000D+00
   401  4.0000000000000D+00  0.0000000000000D+00  0.0000000000000D+00
   402  4.0100000000000D+00  0.0000000000000D+00  0.0000000000000D+00
   403  4.0200000000000D+00  0.0000000000000D+00  0.0000000000000D+00
   404  4.0300000000000D+00  0.0000000000000D+00  0.0000000000000D+00
   405  4.0400000000000D+00  0.0000000000000D+00  0.0000000000000D+00
   406  4.0500000000000D+00  0.0000000000000D+00  0.0000000000000D+00
   407  4.0600000000000D+00  0.0000000000000D+00  0.0000000000000D+00
   408  4.0700000000000D+00  0.0000000000000D+00  0.0000000000000D+00
   409  4.0800000000000D+00  0.0000000000000D+00  0.0000000000000D+00
   410  4.0900000000000D+00  0.0000000000000D+00  0.0000000000000D+00
   411  4.1000000000000D+00  0.0000000000000D+00  0.0000000000000D+00
   412  4.1100000000000D+00  0.0000000000000D+00  0.0000000000000D+00
   413  4.1200000000000D+00  0.0000000000000D+00  0.0000000000000D+00
   414  4.1300000000000D+00  0.0000000000000D+00  0.0000000000000D+00
   415  4.1400000000000D+00  0.0000000000000D+00  0.0000000000000D+00
   416  4.1500000000000D+00  0.0000000000000D+00  0.0000000000000D+00
   417  4.1600000000000D+00  0.0000000000000D+00  0.0000000000000D+00
   418  4.1700000000000D+00  0.0000000000000D+00  0.0000000000000D+00
   419  4.1800000000000D+00  0.0000000000000D+00  0.0000000000000D+00
   420  4.1900000000000D+00  0.0000000000000D+00  0.0000000000000D+00
   421  4.2000000000000D+00  0.0000000000000D+00  0.0000000000000D+00
   422  4.2100000000000D+00  0.0000000000000D+00  0.0000000000000D+00