F     ONCVPSP-3.3.0  r_core=   1.30942   1.45782   1.60379
      9.0000      7.0000      220117    zatom,zion,pspd
     8      11   2     4   600     0    pspcod,pspxc,lmax,lloc,mmax,r2well
  5.99000000  0.00000000  0.00000000    rchrg fchrg qchrg
     2     2     1     0     0    nproj
     1     1           extension_switch
   0                         6.5194028199623D+00  1.0700936651844D+00
     1  0.0000000000000D+00 -2.2537616217733D-09  5.6873420972714D-09
     2  1.0000000000000D-02  9.9772605762903D-02 -3.9483466717812D-02
     3  2.0000000000000D-02  1.9916523710807D-01 -7.8498976494098D-02
     4  3.0000000000000D-02  2.9780067581316D-01 -1.1658415193175D-01
     5  4.0000000000000D-02  3.9530718029845D-01 -1.5328768788862D-01
     6  5.0000000000000D-02  4.9132113516596D-01 -1.8817467200477D-01
     7  6.0000000000000D-02  5.8548959583685D-01 -2.2083165064074D-01
     8  7.0000000000000D-02  6.7747269601831D-01 -2.5087136217377D-01
     9  8.0000000000000D-02  7.6694588798489D-01 -2.7793706528640D-01
    10  9.0000000000000D-02  8.5360198840374D-01 -3.0170639680686D-01
    11  1.0000000000000D-01  9.3715300562202D-01 -3.2189470170508D-01
    12  1.1000000000000D-01  1.0173317279124D+00 -3.3825778687396D-01
    13  1.2000000000000D-01  1.0938930560797D+00 -3.5059406017810D-01
    14  1.3000000000000D-01  1.1666150680000D+00 -3.5874602676250D-01
    15  1.4000000000000D-01  1.2352998070219D+00 -3.6260112560022D-01
    16  1.5000000000000D-01  1.2997737906342D+00 -3.6209190053142D-01
    17  1.6000000000000D-01  1.3598882403163D+00 -3.5719551141088D-01
    18  1.7000000000000D-01  1.4155190379611D+00 -3.4793260224030D-01
    19  1.8000000000000D-01  1.4665664186153D+00 -3.3436555411755D-01
    20  1.9000000000000D-01  1.5129544134455D+00 -3.1659616129674D-01
    21  2.0000000000000D-01  1.5546300607373D+00 -2.9476277843616D-01
    22  2.1000000000000D-01  1.5915624062957D+00 -2.6903699603989D-01
    23  2.2000000000000D-01  1.6237413177865D+00 -2.3961990901826D-01
    24  2.3000000000000D-01  1.6511761402676D+00 -2.0673805005339D-01
    25  2.4000000000000D-01  1.6738942223771D+00 -1.7063906494094D-01
    26  2.5000000000000D-01  1.6919393443119D+00 -1.3158721118155D-01
    27  2.6000000000000D-01  1.7053700798324D+00 -8.9858763739026D-02
    28  2.7000000000000D-01  1.7142581250333D+00 -4.5737413012785D-02
    29  2.8000000000000D-01  1.7186866265203D+00  4.9026033737807D-04
    30  2.9000000000000D-01  1.7187485409353D+00  4.8539151027455D-02
    31  3.0000000000000D-01  1.7145450564721D+00  9.8129756023020D-02
    32  3.1000000000000D-01  1.7061841051631D+00  1.4899198835293D-01
    33  3.2000000000000D-01  1.6937789923078D+00  2.0086860986926D-01
    34  3.3000000000000D-01  1.6774471665131D+00  2.5351822253975D-01
    35  3.4000000000000D-01  1.6573091504629D+00  3.0671776658464D-01
    36  3.5000000000000D-01  1.6334876487974D+00  3.6026448348999D-01
    37  3.6000000000000D-01  1.6061068454243D+00  4.1397731247707D-01
    38  3.7000000000000D-01  1.5752918982809D+00  4.6769770019149D-01
    39  3.8000000000000D-01  1.5411686350922D+00  5.2128981500245D-01
    40  3.9000000000000D-01  1.5038634491130D+00  5.7464016915687D-01
    41  4.0000000000000D-01  1.4635033892875D+00  6.2765666390120D-01
    42  4.1000000000000D-01  1.4202164347845D+00  6.8026708434937D-01
    43  4.2000000000000D-01  1.3741319395712D+00  7.3241708211422D-01
    44  4.3000000000000D-01  1.3253812286407D+00  7.8406769432705D-01
    45  4.4000000000000D-01  1.2740983238020D+00  8.3519245743623D-01
    46  4.5000000000000D-01  1.2204207736393D+00  8.8577418291314D-01
    47  4.6000000000000D-01  1.1644905594262D+00  9.3580146952669D-01
    48  4.7000000000000D-01  1.1064550464978D+00  9.8526503302131D-01
    49  4.8000000000000D-01  1.0464679488850D+00  1.0341539387156D+00
    50  4.9000000000000D-01  9.8469027395502D-01  1.0824518256228D+00
    51  5.0000000000000D-01  9.2129121339562D-01  1.1301332121015D+00
    52  5.1000000000000D-01  8.5644894715342D-01  1.1771599727249D+00
    53  5.2000000000000D-01  7.9035132789804D-01  1.2234780739924D+00
    54  5.3000000000000D-01  7.2319641521903D-01  1.2690146527087D+00
    55  5.4000000000000D-01  6.5519283105627D-01  1.3136755153754D+00
    56  5.5000000000000D-01  5.8655991079052D-01  1.3573431298381D+00
    57  5.6000000000000D-01  5.1752762792278D-01  1.3998751718409D+00
    58  5.7000000000000D-01  4.4833627430679D-01  1.4411036791698D+00
    59  5.8000000000000D-01  3.7923588239518D-01  1.4808348548968D+00
    60  5.9000000000000D-01  3.1048538083979D-01  1.5188495490535D+00
    61  6.0000000000000D-01  2.4235147997384D-01  1.5549044350681D+00
    62  6.1000000000000D-01  1.7510728910122D-01  1.5887338837215D+00
    63  6.2000000000000D-01  1.0903067302203D-01  1.6200525234886D+00
    64  6.3000000000000D-01  4.4402360769057D-02  1.6485584620860D+00
    65  6.4000000000000D-01 -1.8496175056047D-02  1.6739371302827D+00
    66  6.5000000000000D-01 -7.9385044681910D-02  1.6958656955638D+00
    67  6.6000000000000D-01 -1.3798844468263D-01  1.7140179805323D+00
    68  6.7000000000000D-01 -1.9403730542562D-01  1.7280698091607D+00
    69  6.8000000000000D-01 -2.4727204514701D-01  1.7377046932994D+00
    70  6.9000000000000D-01 -2.9744538982595D-01  1.7426197626035D+00
    71  7.0000000000000D-01 -3.4432521512257D-01  1.7425318333015D+00
    72  7.1000000000000D-01 -3.8769736444352D-01  1.7371835052347D+00
    73  7.2000000000000D-01 -4.2736839574634D-01  1.7263491724376D+00
    74  7.3000000000000D-01 -4.6316820904412D-01  1.7098408303666D+00
    75  7.4000000000000D-01 -4.9495250673315D-01  1.6875135627300D+00
    76  7.5000000000000D-01 -5.2260503986742D-01  1.6592705928036D+00
    77  7.6000000000000D-01 -5.4603959531379D-01  1.6250677880743D+00
    78  7.7000000000000D-01 -5.6520168137029D-01  1.5849175130894D+00
    79  7.8000000000000D-01 -5.8006987282661D-01  1.5388917333157D+00
    80  7.9000000000000D-01 -5.9065678058442D-01  1.4871242825891D+00
    81  8.0000000000000D-01 -5.9700961575600D-01  1.4298122181838D+00
    82  8.1000000000000D-01 -5.9921032355019D-01  1.3672162004688D+00
    83  8.2000000000000D-01 -5.9737526815069D-01  1.2996598483427D+00
    84  8.3000000000000D-01 -5.9165445609443D-01  1.2275280368971D+00
    85  8.4000000000000D-01 -5.8223029226277D-01  1.1512641198086D+00
    86  8.5000000000000D-01 -5.6931586939278D-01  1.0713660755078D+00
    87  8.6000000000000D-01 -5.5315279888415D-01  9.8838159294028D-01
    88  8.7000000000000D-01 -5.3400859749822D-01  9.0290212942526D-01
    89  8.8000000000000D-01 -5.1217365120089D-01  8.1555598942147D-01
    90  8.9000000000000D-01 -4.8795778377044D-01  7.2700048865000D-01
    91  9.0000000000000D-01 -4.6168646376281D-01  6.3791328270290D-01
    92  9.1000000000000D-01 -4.3369668888954D-01  5.4898295271954D-01
    93  9.2000000000000D-01 -4.0433259171888D-01  4.6089895268987D-01
    94  9.3000000000000D-01 -3.7394081372011D-01  3.7434102914112D-01
    95  9.4000000000000D-01 -3.4286570094715D-01  2.8996824460968D-01
    96  9.5000000000000D-01 -3.1144440237606D-01  2.0840783293544D-01
    97  9.6000000000000D-01 -2.8000177670676D-01  1.3024345551964D-01
    98  9.7000000000000D-01 -2.4884582127029D-01  5.6005526190913D-02
    99  9.8000000000000D-01 -2.1826665949862D-01 -1.3824954386234D-02
   100  9.9000000000000D-01 -1.8853662188369D-01 -7.8810092857095D-02
   101  1.0000000000000D+00 -1.5990787753062D-01 -1.3855950451682D-01
   102  1.0100000000000D+00 -1.3260960652760D-01 -1.9273705206916D-01
   103  1.0200000000000D+00 -1.0684565766891D-01 -2.4106611652753D-01
   104  1.0300000000000D+00 -8.2792521171400D-02 -2.8333418112073D-01
   105  1.0400000000000D+00 -6.0597681701167D-02 -3.1939650389174D-01
   106  1.0500000000000D+00 -4.0378382902319D-02 -3.4917879677443D-01
   107  1.0600000000000D+00 -2.2220822930446D-02 -3.7267886432388D-01
   108  1.0700000000000D+00 -6.1797953452039D-03 -3.8996716560811D-01
   109  1.0800000000000D+00  7.7212170646093D-03 -4.0118627948111D-01
   110  1.0900000000000D+00  1.9489495433611D-02 -4.0654927193435D-01
   111  1.1000000000000D+00  2.9162091315989D-02 -4.0633698018283D-01
   112  1.1100000000000D+00  3.6804400679767D-02 -4.0089424742244D-01
   113  1.1200000000000D+00  4.2508326236039D-02 -3.9062515873457D-01
   114  1.1300000000000D+00  4.6390055618257D-02 -3.7598734517609D-01
   115  1.1400000000000D+00  4.8587488939998D-02 -3.5748543802027D-01
   116  1.1500000000000D+00  4.9257354910320D-02 -3.3566376912834D-01
   117  1.1600000000000D+00  4.8572060399627D-02 -3.1109842765251D-01
   118  1.1700000000000D+00  4.6716322214653D-02 -2.8438879289413D-01
   119  1.1800000000000D+00  4.3883633219508D-02 -2.5614867155671D-01
   120  1.1900000000000D+00  4.0272618417858D-02 -2.2699717631837D-01
   121  1.2000000000000D+00  3.6083338292026D-02 -1.9754948688188D-01
   122  1.2100000000000D+00  3.1513597113407D-02 -1.6840763576727D-01
   123  1.2200000000000D+00  2.6755314930423D-02 -1.4015146357925D-01
   124  1.2300000000000D+00  2.1991020703990D-02 -1.1332988558429D-01
   125  1.2400000000000D+00  1.7390521234286D-02 -8.8452604421506D-02
   126  1.2500000000000D+00  1.3107799833160D-02 -6.5982402051982D-02
   127  1.2600000000000D+00  9.2781937980918D-03 -4.6328132093052D-02
   128  1.2700000000000D+00  6.0179103803556D-03 -2.9848360200685D-02
   129  1.2800000000000D+00  3.4083358154473D-03 -1.6780570873911D-02
   130  1.2900000000000D+00  1.5204702362098D-03 -7.3632588955389D-03
   131  1.3000000000000D+00  4.5789434197014D-04 -2.0314280386800D-03
   132  1.3100000000000D+00  6.2461303455075D-05 -7.1791466747172D-05
   133  1.3200000000000D+00 -8.6861420560175D-06  1.2219723006774D-04
   134  1.3300000000000D+00  5.6939064024944D-06 -5.3210781247194D-05
   135  1.3400000000000D+00  1.3022355849462D-06 -1.0765997873799D-05
   136  1.3500000000000D+00 -8.6219169645520D-07  9.9844311235449D-06
   137  1.3600000000000D+00 -1.2287057283043D-07  2.0328779942759D-07
   138  1.3700000000000D+00 -1.2141394596821D-07  2.0087782881715D-07
   139  1.3800000000000D+00  0.0000000000000D+00  0.0000000000000D+00
   140  1.3900000000000D+00  0.0000000000000D+00  0.0000000000000D+00
   141  1.4000000000000D+00  0.0000000000000D+00  0.0000000000000D+00
   142  1.4100000000000D+00  0.0000000000000D+00  0.0000000000000D+00
   143  1.4200000000000D+00  0.0000000000000D+00  0.0000000000000D+00
   144  1.4300000000000D+00  0.0000000000000D+00  0.0000000000000D+00
   145  1.4400000000000D+00  0.0000000000000D+00  0.0000000000000D+00
   146  1.4500000000000D+00  0.0000000000000D+00  0.0000000000000D+00
   147  1.4600000000000D+00  0.0000000000000D+00  0.0000000000000D+00
   148  1.4700000000000D+00  0.0000000000000D+00  0.0000000000000D+00
   149  1.4800000000000D+00  0.0000000000000D+00  0.0000000000000D+00
   150  1.4900000000000D+00  0.0000000000000D+00  0.0000000000000D+00
   151  1.5000000000000D+00  0.0000000000000D+00  0.0000000000000D+00
   152  1.5100000000000D+00  0.0000000000000D+00  0.0000000000000D+00
   153  1.5200000000000D+00  0.0000000000000D+00  0.0000000000000D+00
   154  1.5300000000000D+00  0.0000000000000D+00  0.0000000000000D+00
   155  1.5400000000000D+00  0.0000000000000D+00  0.0000000000000D+00
   156  1.5500000000000D+00  0.0000000000000D+00  0.0000000000000D+00
   157  1.5600000000000D+00  0.0000000000000D+00  0.0000000000000D+00
   158  1.5700000000000D+00  0.0000000000000D+00  0.0000000000000D+00
   159  1.5800000000000D+00  0.0000000000000D+00  0.0000000000000D+00
   160  1.5900000000000D+00  0.0000000000000D+00  0.0000000000000D+00
   161  1.6000000000000D+00  0.0000000000000D+00  0.0000000000000D+00
   162  1.6100000000000D+00  0.0000000000000D+00  0.0000000000000D+00
   163  1.6200000000000D+00  0.0000000000000D+00  0.0000000000000D+00
   164  1.6300000000000D+00  0.0000000000000D+00  0.0000000000000D+00
   165  1.6400000000000D+00  0.0000000000000D+00  0.0000000000000D+00
   166  1.6500000000000D+00  0.0000000000000D+00  0.0000000000000D+00
   167  1.6600000000000D+00  0.0000000000000D+00  0.0000000000000D+00
   168  1.6700000000000D+00  0.0000000000000D+00  0.0000000000000D+00
   169  1.6800000000000D+00  0.0000000000000D+00  0.0000000000000D+00
   170  1.6900000000000D+00  0.0000000000000D+00  0.0000000000000D+00
   171  1.7000000000000D+00  0.0000000000000D+00  0.0000000000000D+00
   172  1.7100000000000D+00  0.0000000000000D+00  0.0000000000000D+00
   173  1.7200000000000D+00  0.0000000000000D+00  0.0000000000000D+00
   174  1.7300000000000D+00  0.0000000000000D+00  0.0000000000000D+00
   175  1.7400000000000D+00  0.0000000000000D+00  0.0000000000000D+00
   176  1.7500000000000D+00  0.0000000000000D+00  0.0000000000000D+00
   177  1.7600000000000D+00  0.0000000000000D+00  0.0000000000000D+00
   178  1.7700000000000D+00  0.0000000000000D+00  0.0000000000000D+00
   179  1.7800000000000D+00  0.0000000000000D+00  0.0000000000000D+00
   180  1.7900000000000D+00  0.0000000000000D+00  0.0000000000000D+00
   181  1.8000000000000D+00  0.0000000000000D+00  0.0000000000000D+00
   182  1.8100000000000D+00  0.0000000000000D+00  0.0000000000000D+00
   183  1.8200000000000D+00  0.0000000000000D+00  0.0000000000000D+00
   184  1.8300000000000D+00  0.0000000000000D+00  0.0000000000000D+00
   185  1.8400000000000D+00  0.0000000000000D+00  0.0000000000000D+00
   186  1.8500000000000D+00  0.0000000000000D+00  0.0000000000000D+00
   187  1.8600000000000D+00  0.0000000000000D+00  0.0000000000000D+00
   188  1.8700000000000D+00  0.0000000000000D+00  0.0000000000000D+00
   189  1.8800000000000D+00  0.0000000000000D+00  0.0000000000000D+00
   190  1.8900000000000D+00  0.0000000000000D+00  0.0000000000000D+00
   191  1.9000000000000D+00  0.0000000000000D+00  0.0000000000000D+00
   192  1.9100000000000D+00  0.0000000000000D+00  0.0000000000000D+00
   193  1.9200000000000D+00  0.0000000000000D+00  0.0000000000000D+00
   194  1.9300000000000D+00  0.0000000000000D+00  0.0000000000000D+00
   195  1.9400000000000D+00  0.0000000000000D+00  0.0000000000000D+00
   196  1.9500000000000D+00  0.0000000000000D+00  0.0000000000000D+00
   197  1.9600000000000D+00  0.0000000000000D+00  0.0000000000000D+00
   198  1.9700000000000D+00  0.0000000000000D+00  0.0000000000000D+00
   199  1.9800000000000D+00  0.0000000000000D+00  0.0000000000000D+00
   200  1.9900000000000D+00  0.0000000000000D+00  0.0000000000000D+00
   201  2.0000000000000D+00  0.0000000000000D+00  0.0000000000000D+00
   202  2.0100000000000D+00  0.0000000000000D+00  0.0000000000000D+00
   203  2.0200000000000D+00  0.0000000000000D+00  0.0000000000000D+00
   204  2.0300000000000D+00  0.0000000000000D+00  0.0000000000000D+00
   205  2.0400000000000D+00  0.0000000000000D+00  0.0000000000000D+00
   206  2.0500000000000D+00  0.0000000000000D+00  0.0000000000000D+00
   207  2.0600000000000D+00  0.0000000000000D+00  0.0000000000000D+00
   208  2.0700000000000D+00  0.0000000000000D+00  0.0000000000000D+00
   209  2.0800000000000D+00  0.0000000000000D+00  0.0000000000000D+00
   210  2.0900000000000D+00  0.0000000000000D+00  0.0000000000000D+00
   211  2.1000000000000D+00  0.0000000000000D+00  0.0000000000000D+00
   212  2.1100000000000D+00  0.0000000000000D+00  0.0000000000000D+00
   213  2.1200000000000D+00  0.0000000000000D+00  0.0000000000000D+00
   214  2.1300000000000D+00  0.0000000000000D+00  0.0000000000000D+00
   215  2.1400000000000D+00  0.0000000000000D+00  0.0000000000000D+00
   216  2.1500000000000D+00  0.0000000000000D+00  0.0000000000000D+00
   217  2.1600000000000D+00  0.0000000000000D+00  0.0000000000000D+00
   218  2.1700000000000D+00  0.0000000000000D+00  0.0000000000000D+00
   219  2.1800000000000D+00  0.0000000000000D+00  0.0000000000000D+00
   220  2.1900000000000D+00  0.0000000000000D+00  0.0000000000000D+00
   221  2.2000000000000D+00  0.0000000000000D+00  0.0000000000000D+00
   222  2.2100000000000D+00  0.0000000000000D+00  0.0000000000000D+00
   223  2.2200000000000D+00  0.0000000000000D+00  0.0000000000000D+00
   224  2.2300000000000D+00  0.0000000000000D+00  0.0000000000000D+00
   225  2.2400000000000D+00  0.0000000000000D+00  0.0000000000000D+00
   226  2.2500000000000D+00  0.0000000000000D+00  0.0000000000000D+00
   227  2.2600000000000D+00  0.0000000000000D+00  0.0000000000000D+00
   228  2.2700000000000D+00  0.0000000000000D+00  0.0000000000000D+00
   229  2.2800000000000D+00  0.0000000000000D+00  0.0000000000000D+00
   230  2.2900000000000D+00  0.0000000000000D+00  0.0000000000000D+00
   231  2.3000000000000D+00  0.0000000000000D+00  0.0000000000000D+00
   232  2.3100000000000D+00  0.0000000000000D+00  0.0000000000000D+00
   233  2.3200000000000D+00  0.0000000000000D+00  0.0000000000000D+00
   234  2.3300000000000D+00  0.0000000000000D+00  0.0000000000000D+00
   235  2.3400000000000D+00  0.0000000000000D+00  0.0000000000000D+00
   236  2.3500000000000D+00  0.0000000000000D+00  0.0000000000000D+00
   237  2.3600000000000D+00  0.0000000000000D+00  0.0000000000000D+00
   238  2.3700000000000D+00  0.0000000000000D+00  0.0000000000000D+00
   239  2.3800000000000D+00  0.0000000000000D+00  0.0000000000000D+00
   240  2.3900000000000D+00  0.0000000000000D+00  0.0000000000000D+00
   241  2.4000000000000D+00  0.0000000000000D+00  0.0000000000000D+00
   242  2.4100000000000D+00  0.0000000000000D+00  0.0000000000000D+00
   243  2.4200000000000D+00  0.0000000000000D+00  0.0000000000000D+00
   244  2.4300000000000D+00  0.0000000000000D+00  0.0000000000000D+00
   245  2.4400000000000D+00  0.0000000000000D+00  0.0000000000000D+00
   246  2.4500000000000D+00  0.0000000000000D+00  0.0000000000000D+00
   247  2.4600000000000D+00  0.0000000000000D+00  0.0000000000000D+00
   248  2.4700000000000D+00  0.0000000000000D+00  0.0000000000000D+00
   249  2.4800000000000D+00  0.0000000000000D+00  0.0000000000000D+00
   250  2.4900000000000D+00  0.0000000000000D+00  0.0000000000000D+00
   251  2.5000000000000D+00  0.0000000000000D+00  0.0000000000000D+00
   252  2.5100000000000D+00  0.0000000000000D+00  0.0000000000000D+00
   253  2.5200000000000D+00  0.0000000000000D+00  0.0000000000000D+00
   254  2.5300000000000D+00  0.0000000000000D+00  0.0000000000000D+00
   255  2.5400000000000D+00  0.0000000000000D+00  0.0000000000000D+00
   256  2.5500000000000D+00  0.0000000000000D+00  0.0000000000000D+00
   257  2.5600000000000D+00  0.0000000000000D+00  0.0000000000000D+00
   258  2.5700000000000D+00  0.0000000000000D+00  0.0000000000000D+00
   259  2.5800000000000D+00  0.0000000000000D+00  0.0000000000000D+00
   260  2.5900000000000D+00  0.0000000000000D+00  0.0000000000000D+00
   261  2.6000000000000D+00  0.0000000000000D+00  0.0000000000000D+00
   262  2.6100000000000D+00  0.0000000000000D+00  0.0000000000000D+00
   263  2.6200000000000D+00  0.0000000000000D+00  0.0000000000000D+00
   264  2.6300000000000D+00  0.0000000000000D+00  0.0000000000000D+00
   265  2.6400000000000D+00  0.0000000000000D+00  0.0000000000000D+00
   266  2.6500000000000D+00  0.0000000000000D+00  0.0000000000000D+00
   267  2.6600000000000D+00  0.0000000000000D+00  0.0000000000000D+00
   268  2.6700000000000D+00  0.0000000000000D+00  0.0000000000000D+00
   269  2.6800000000000D+00  0.0000000000000D+00  0.0000000000000D+00
   270  2.6900000000000D+00  0.0000000000000D+00  0.0000000000000D+00
   271  2.7000000000000D+00  0.0000000000000D+00  0.0000000000000D+00
   272  2.7100000000000D+00  0.0000000000000D+00  0.0000000000000D+00
   273  2.7200000000000D+00  0.0000000000000D+00  0.0000000000000D+00
   274  2.7300000000000D+00  0.0000000000000D+00  0.0000000000000D+00
   275  2.7400000000000D+00  0.0000000000000D+00  0.0000000000000D+00
   276  2.7500000000000D+00  0.0000000000000D+00  0.0000000000000D+00
   277  2.7600000000000D+00  0.0000000000000D+00  0.0000000000000D+00
   278  2.7700000000000D+00  0.0000000000000D+00  0.0000000000000D+00
   279  2.7800000000000D+00  0.0000000000000D+00  0.0000000000000D+00
   280  2.7900000000000D+00  0.0000000000000D+00  0.0000000000000D+00
   281  2.8000000000000D+00  0.0000000000000D+00  0.0000000000000D+00
   282  2.8100000000000D+00  0.0000000000000D+00  0.0000000000000D+00
   283  2.8200000000000D+00  0.0000000000000D+00  0.0000000000000D+00
   284  2.8300000000000D+00  0.0000000000000D+00  0.0000000000000D+00
   285  2.8400000000000D+00  0.0000000000000D+00  0.0000000000000D+00
   286  2.8500000000000D+00  0.0000000000000D+00  0.0000000000000D+00
   287  2.8600000000000D+00  0.0000000000000D+00  0.0000000000000D+00
   288  2.8700000000000D+00  0.0000000000000D+00  0.0000000000000D+00
   289  2.8800000000000D+00  0.0000000000000D+00  0.0000000000000D+00
   290  2.8900000000000D+00  0.0000000000000D+00  0.0000000000000D+00
   291  2.9000000000000D+00  0.0000000000000D+00  0.0000000000000D+00
   292  2.9100000000000D+00  0.0000000000000D+00  0.0000000000000D+00
   293  2.9200000000000D+00  0.0000000000000D+00  0.0000000000000D+00
   294  2.9300000000000D+00  0.0000000000000D+00  0.0000000000000D+00
   295  2.9400000000000D+00  0.0000000000000D+00  0.0000000000000D+00
   296  2.9500000000000D+00  0.0000000000000D+00  0.0000000000000D+00
   297  2.9600000000000D+00  0.0000000000000D+00  0.0000000000000D+00
   298  2.9700000000000D+00  0.0000000000000D+00  0.0000000000000D+00
   299  2.9800000000000D+00  0.0000000000000D+00  0.0000000000000D+00
   300  2.9900000000000D+00  0.0000000000000D+00  0.0000000000000D+00
   301  3.0000000000000D+00  0.0000000000000D+00  0.0000000000000D+00
   302  3.0100000000000D+00  0.0000000000000D+00  0.0000000000000D+00
   303  3.0200000000000D+00  0.0000000000000D+00  0.0000000000000D+00
   304  3.0300000000000D+00  0.0000000000000D+00  0.0000000000000D+00
   305  3.0400000000000D+00  0.0000000000000D+00  0.0000000000000D+00
   306  3.0500000000000D+00  0.0000000000000D+00  0.0000000000000D+00
   307  3.0600000000000D+00  0.0000000000000D+00  0.0000000000000D+00
   308  3.0700000000000D+00  0.0000000000000D+00  0.0000000000000D+00
   309  3.0800000000000D+00  0.0000000000000D+00  0.0000000000000D+00
   310  3.0900000000000D+00  0.0000000000000D+00  0.0000000000000D+00
   311  3.1000000000000D+00  0.0000000000000D+00  0.0000000000000D+00
   312  3.1100000000000D+00  0.0000000000000D+00  0.0000000000000D+00
   313  3.1200000000000D+00  0.0000000000000D+00  0.0000000000000D+00
   314  3.1300000000000D+00  0.0000000000000D+00  0.0000000000000D+00
   315  3.1400000000000D+00  0.0000000000000D+00  0.0000000000000D+00
   316  3.1500000000000D+00  0.0000000000000D+00  0.0000000000000D+00
   317  3.1600000000000D+00  0.0000000000000D+00  0.0000000000000D+00
   318  3.1700000000000D+00  0.0000000000000D+00  0.0000000000000D+00
   319  3.1800000000000D+00  0.0000000000000D+00  0.0000000000000D+00
   320  3.1900000000000D+00  0.0000000000000D+00  0.0000000000000D+00
   321  3.2000000000000D+00  0.0000000000000D+00  0.0000000000000D+00
   322  3.2100000000000D+00  0.0000000000000D+00  0.0000000000000D+00
   323  3.2200000000000D+00  0.0000000000000D+00  0.0000000000000D+00
   324  3.2300000000000D+00  0.0000000000000D+00  0.0000000000000D+00
   325  3.2400000000000D+00  0.0000000000000D+00  0.0000000000000D+00
   326  3.2500000000000D+00  0.0000000000000D+00  0.0000000000000D+00
   327  3.2600000000000D+00  0.0000000000000D+00  0.0000000000000D+00
   328  3.2700000000000D+00  0.0000000000000D+00  0.0000000000000D+00
   329  3.2800000000000D+00  0.0000000000000D+00  0.0000000000000D+00
   330  3.2900000000000D+00  0.0000000000000D+00  0.0000000000000D+00
   331  3.3000000000000D+00  0.0000000000000D+00  0.0000000000000D+00
   332  3.3100000000000D+00  0.0000000000000D+00  0.0000000000000D+00
   333  3.3200000000000D+00  0.0000000000000D+00  0.0000000000000D+00
   334  3.3300000000000D+00  0.0000000000000D+00  0.0000000000000D+00
   335  3.3400000000000D+00  0.0000000000000D+00  0.0000000000000D+00
   336  3.3500000000000D+00  0.0000000000000D+00  0.0000000000000D+00
   337  3.3600000000000D+00  0.0000000000000D+00  0.0000000000000D+00
   338  3.3700000000000D+00  0.0000000000000D+00  0.0000000000000D+00
   339  3.3800000000000D+00  0.0000000000000D+00  0.0000000000000D+00
   340  3.3900000000000D+00  0.0000000000000D+00  0.0000000000000D+00
   341  3.4000000000000D+00  0.0000000000000D+00  0.0000000000000D+00
   342  3.4100000000000D+00  0.0000000000000D+00  0.0000000000000D+00
   343  3.4200000000000D+00  0.0000000000000D+00  0.0000000000000D+00
   344  3.4300000000000D+00  0.0000000000000D+00  0.0000000000000D+00
   345  3.4400000000000D+00  0.0000000000000D+00  0.0000000000000D+00
   346  3.4500000000000D+00  0.0000000000000D+00  0.0000000000000D+00
   347  3.4600000000000D+00  0.0000000000000D+00  0.0000000000000D+00
   348  3.4700000000000D+00  0.0000000000000D+00  0.0000000000000D+00
   349  3.4800000000000D+00  0.0000000000000D+00  0.0000000000000D+00
   350  3.4900000000000D+00  0.0000000000000D+00  0.0000000000000D+00
   351  3.5000000000000D+00  0.0000000000000D+00  0.0000000000000D+00
   352  3.5100000000000D+00  0.0000000000000D+00  0.0000000000000D+00
   353  3.5200000000000D+00  0.0000000000000D+00  0.0000000000000D+00
   354  3.5300000000000D+00  0.0000000000000D+00  0.0000000000000D+00
   355  3.5400000000000D+00  0.0000000000000D+00  0.0000000000000D+00
   356  3.5500000000000D+00  0.0000000000000D+00  0.0000000000000D+00
   357  3.5600000000000D+00  0.0000000000000D+00  0.0000000000000D+00
   358  3.5700000000000D+00  0.0000000000000D+00  0.0000000000000D+00
   359  3.5800000000000D+00  0.0000000000000D+00  0.0000000000000D+00
   360  3.5900000000000D+00  0.0000000000000D+00  0.0000000000000D+00
   361  3.6000000000000D+00  0.0000000000000D+00  0.0000000000000D+00
   362  3.6100000000000D+00  0.0000000000000D+00  0.0000000000000D+00
   363  3.6200000000000D+00  0.0000000000000D+00  0.0000000000000D+00
   364  3.6300000000000D+00  0.0000000000000D+00  0.0000000000000D+00
   365  3.6400000000000D+00  0.0000000000000D+00  0.0000000000000D+00
   366  3.6500000000000D+00  0.0000000000000D+00  0.0000000000000D+00
   367  3.6600000000000D+00  0.0000000000000D+00  0.0000000000000D+00
   368  3.6700000000000D+00  0.0000000000000D+00  0.0000000000000D+00
   369  3.6800000000000D+00  0.0000000000000D+00  0.0000000000000D+00
   370  3.6900000000000D+00  0.0000000000000D+00  0.0000000000000D+00
   371  3.7000000000000D+00  0.0000000000000D+00  0.0000000000000D+00
   372  3.7100000000000D+00  0.0000000000000D+00  0.0000000000000D+00
   373  3.7200000000000D+00  0.0000000000000D+00  0.0000000000000D+00
   374  3.7300000000000D+00  0.0000000000000D+00  0.0000000000000D+00
   375  3.7400000000000D+00  0.0000000000000D+00  0.0000000000000D+00
   376  3.7500000000000D+00  0.0000000000000D+00  0.0000000000000D+00
   377  3.7600000000000D+00  0.0000000000000D+00  0.0000000000000D+00
   378  3.7700000000000D+00  0.0000000000000D+00  0.0000000000000D+00
   379  3.7800000000000D+00  0.0000000000000D+00  0.0000000000000D+00
   380  3.7900000000000D+00  0.0000000000000D+00  0.0000000000000D+00
   381  3.8000000000000D+00  0.0000000000000D+00  0.0000000000000D+00
   382  3.8100000000000D+00  0.0000000000000D+00  0.0000000000000D+00
   383  3.8200000000000D+00  0.0000000000000D+00  0.0000000000000D+00
   384  3.8300000000000D+00  0.0000000000000D+00  0.0000000000000D+00
   385  3.8400000000000D+00  0.0000000000000D+00  0.0000000000000D+00
   386  3.8500000000000D+00  0.0000000000000D+00  0.0000000000000D+00
   387  3.8600000000000D+00  0.0000000000000D+00  0.0000000000000D+00
   388  3.8700000000000D+00  0.0000000000000D+00  0.0000000000000D+00
   389  3.8800000000000D+00  0.0000000000000D+00  0.0000000000000D+00
   390  3.8900000000000D+00  0.0000000000000D+00  0.0000000000000D+00
   391  3.9000000000000D+00  0.0000000000000D+00  0.0000000000000D+00
   392  3.9100000000000D+00  0.0000000000000D+00  0.0000000000000D+00
   393  3.9200000000000D+00  0.0000000000000D+00  0.0000000000000D+00
   394  3.9300000000000D+00  0.0000000000000D+00  0.0000000000000D+00
   395  3.9400000000000D+00  0.0000000000000D+00  0.0000000000000D+00
   396  3.9500000000000D+00  0.0000000000000D+00  0.0000000000000D+00
   397  3.9600000000000D+00  0.0000000000000D+00  0.0000000000000D+00
   398  3.9700000000000D+00  0.0000000000000D+00  0.0000000000000D+00
   399  3.9800000000000D+00  0.0000000000000D+00  0.0000000000000D+00
   400  3.9900000000000D+00  0.0000000000000D+00  0.0000000000000D+00
   401  4.0000000000000D+00  0.0000000000000D+00  0.0000000000000D+00
   402  4.0100000000000D+00  0.0000000000000D+00  0.0000000000000D+00
   403  4.0200000000000D+00  0.0000000000000D+00  0.0000000000000D+00
   404  4.0300000000000D+00  0.0000000000000D+00  0.0000000000000D+00
   405  4.0400000000000D+00  0.0000000000000D+00  0.0000000000000D+00
   406  4.0500000000000D+00  0.0000000000000D+00  0.0000000000000D+00
   407  4.0600000000000D+00  0.0000000000000D+00  0.0000000000000D+00
   408  4.0700000000000D+00  0.0000000000000D+00  0.0000000000000D+00
   409  4.0800000000000D+00  0.0000000000000D+00  0.0000000000000D+00
   410  4.0900000000000D+00  0.0000000000000D+00  0.0000000000000D+00
   411  4.1000000000000D+00  0.0000000000000D+00  0.0000000000000D+00
   412  4.1100000000000D+00  0.0000000000000D+00  0.0000000000000D+00
   413  4.1200000000000D+00  0.0000000000000D+00  0.0000000000000D+00
   414  4.1300000000000D+00  0.0000000000000D+00  0.0000000000000D+00
   415  4.1400000000000D+00  0.0000000000000D+00  0.0000000000000D+00
   416  4.1500000000000D+00  0.0000000000000D+00  0.0000000000000D+00
   417  4.1600000000000D+00  0.0000000000000D+00  0.0000000000000D+00
   418  4.1700000000000D+00  0.0000000000000D+00  0.0000000000000D+00
   419  4.1800000000000D+00  0.0000000000000D+00  0.0000000000000D+00
   420  4.1900000000000D+00  0.0000000000000D+00  0.0000000000000D+00
   421  4.2000000000000D+00  0.0000000000000D+00  0.0000000000000D+00
   422  4.2100000000000D+00  0.0000000000000D+00  0.0000000000000D+00