Pd    ONCVPSP-3.3.0  r_core=   1.41052   1.46191   1.55175
     46.0000     18.0000      220117    zatom,zion,pspd
     8      11   2     4   600     0    pspcod,pspxc,lmax,lloc,mmax,r2well
  5.99000000  0.00000000  0.00000000    rchrg fchrg qchrg
     2     2     2     0     0    nproj
     1     1           extension_switch
   0                         7.8458495722627D+00 -2.2821597775818D+00
     1  0.0000000000000D+00 -1.2152989725678D-10 -9.0637358729495D-10
     2  1.0000000000000D-02  6.3662790387547D-02 -5.8022747626117D-02
     3  2.0000000000000D-02  1.2719896151829D-01 -1.1590283647779D-01
     4  3.0000000000000D-02  1.9048236545129D-01 -1.7349681113389D-01
     5  4.0000000000000D-02  2.5338779353842D-01 -2.3065964151163D-01
     6  5.0000000000000D-02  3.1579143775460D-01 -2.8724398188244D-01
     7  6.0000000000000D-02  3.7757134213547D-01 -3.4309948485512D-01
     8  7.0000000000000D-02  4.3860784116867D-01 -3.9807218757500D-01
     9  8.0000000000000D-02  4.9878398210650D-01 -4.5200398648105D-01
    10  9.0000000000000D-02  5.5798592831756D-01 -5.0473221584824D-01
    11  1.0000000000000D-01  6.1610334097128D-01 -5.5608934402966D-01
    12  1.1000000000000D-01  6.7302973655127D-01 -6.0590279981680D-01
    13  1.2000000000000D-01  7.2866281791830D-01 -6.5399493967222D-01
    14  1.3000000000000D-01  7.8290477688994D-01 -7.0018316477380D-01
    15  1.4000000000000D-01  8.3566256656873D-01 -7.4428019486313D-01
    16  1.5000000000000D-01  8.8684814193240D-01 -7.8609450383328D-01
    17  1.6000000000000D-01  9.3637866749396D-01 -8.2543091984407D-01
    18  1.7000000000000D-01  9.8417669114593D-01 -8.6209139054023D-01
    19  1.8000000000000D-01  1.0301702836157D+00 -8.9587591169256D-01
    20  1.9000000000000D-01  1.0742931432781D+00 -9.2658361530843D-01
    21  2.0000000000000D-01  1.1164846663911D+00 -9.5401401099252D-01
    22  2.1000000000000D-01  1.1566899831382D+00 -9.7796837210425D-01
    23  2.2000000000000D-01  1.1948599601773D+00 -9.9825125608150D-01
    24  2.3000000000000D-01  1.2309511707003D+00 -1.0146721462059D+00
    25  2.4000000000000D-01  1.2649258333038D+00 -1.0270472000957D+00
    26  2.5000000000000D-01  1.2967517212533D+00 -1.0352010883549D+00
    27  2.6000000000000D-01  1.3264020439887D+00 -1.0389689050974D+00
    28  2.7000000000000D-01  1.3538553029648D+00 -1.0381981305352D+00
    29  2.8000000000000D-01  1.3790951241428D+00 -1.0327506244759D+00
    30  2.9000000000000D-01  1.4021100696505D+00 -1.0225046284456D+00
    31  3.0000000000000D-01  1.4228934313008D+00 -1.0073567532498D+00
    32  3.1000000000000D-01  1.4414430088023D+00 -9.8722392812292D-01
    33  3.2000000000000D-01  1.4577608756092D+00 -9.6204528720616D-01
    34  3.3000000000000D-01  1.4718531354448D+00 -9.3178396894363D-01
    35  3.4000000000000D-01  1.4837296725757D+00 -8.9642880410930D-01
    36  3.5000000000000D-01  1.4934038989389D+00 -8.5599586856546D-01
    37  3.6000000000000D-01  1.5008925011998D+00 -8.1052987752140D-01
    38  3.7000000000000D-01  1.5062151907726D+00 -7.6010539899700D-01
    39  3.8000000000000D-01  1.5093944597494D+00 -7.0482786540106D-01
    40  3.9000000000000D-01  1.5104553455638D+00 -6.4483436359975D-01
    41  4.0000000000000D-01  1.5094252070688D+00 -5.8029418556522D-01
    42  4.1000000000000D-01  1.5063335145260D+00 -5.1140912364820D-01
    43  4.2000000000000D-01  1.5012116557929D+00 -4.3841349669174D-01
    44  4.3000000000000D-01  1.4940927607592D+00 -3.6157389558265D-01
    45  4.4000000000000D-01  1.4850115458212D+00 -2.8118863939715D-01
    46  4.5000000000000D-01  1.4740041798958D+00 -1.9758693601916D-01
    47  4.6000000000000D-01  1.4611081731766D+00 -1.1112774396503D-01
    48  4.7000000000000D-01  1.4463622895089D+00 -2.2198335112676D-02
    49  4.8000000000000D-01  1.4298064829299D+00  6.8787438923166D-02
    50  4.9000000000000D-01  1.4114818585762D+00  1.6139117093664D-01
    51  5.0000000000000D-01  1.3914306578111D+00  2.5515220385246D-01
    52  5.1000000000000D-01  1.3696962670727D+00  3.4959020598299D-01
    53  5.2000000000000D-01  1.3463232495950D+00  4.4420800072843D-01
    54  5.3000000000000D-01  1.3213573988083D+00  5.3849463265888D-01
    55  5.4000000000000D-01  1.2948458118931D+00  6.3192864905495D-01
    56  5.5000000000000D-01  1.2668369816401D+00  7.2398157326844D-01
    57  5.6000000000000D-01  1.2373809044629D+00  8.1412154372586D-01
    58  5.7000000000000D-01  1.2065292021333D+00  9.0181709005647D-01
    59  5.8000000000000D-01  1.1743352545461D+00  9.8654101573146D-01
    60  5.9000000000000D-01  1.1408543405932D+00  1.0677743547500D+00
    61  6.0000000000000D-01  1.1061437840303D+00  1.1450103683602D+00
    62  6.1000000000000D-01  1.0702631010517D+00  1.2177585465437D+00
    63  6.2000000000000D-01  1.0332741461638D+00  1.2855485780767D+00
    64  6.3000000000000D-01  9.9524125285935D-01  1.3479342523939D+00
    65  6.4000000000000D-01  9.5623136554462D-01  1.4044972562601D+00
    66  6.5000000000000D-01  9.1631415916662D-01  1.4548508283930D+00
    67  6.6000000000000D-01  8.7556214302513D-01  1.4986432356963D+00
    68  6.7000000000000D-01  8.3405074533324D-01  1.5355610356483D+00
    69  6.8000000000000D-01  7.9185837521456D-01  1.5653320906482D+00
    70  6.9000000000000D-01  7.4906645899247D-01  1.5877283017571D+00
    71  7.0000000000000D-01  7.0575944783550D-01  1.6025680312511D+00
    72  7.1000000000000D-01  6.6202479407310D-01  1.6097181857417D+00
    73  7.2000000000000D-01  6.1795289378388D-01  1.6090959342660D+00
    74  7.3000000000000D-01  5.7363699358510D-01  1.6006700387353D+00
    75  7.4000000000000D-01  5.2917305990981D-01  1.5844617773652D+00
    76  7.5000000000000D-01  4.8465960944803D-01  1.5605454452242D+00
    77  7.6000000000000D-01  4.4019749984467D-01  1.5290484197682D+00
    78  7.7000000000000D-01  3.9588968018563D-01  1.4901507831463D+00
    79  7.8000000000000D-01  3.5184090126071D-01  1.4440844971374D+00
    80  7.9000000000000D-01  3.0815738606441D-01  1.3911321307776D+00
    81  8.0000000000000D-01  2.6494646147469D-01  1.3316251449914D+00
    82  8.1000000000000D-01  2.2231615253441D-01  1.2659417428479D+00
    83  8.2000000000000D-01  1.8037474124248D-01  1.1945042983430D+00
    84  8.3000000000000D-01  1.3923029223739D-01  1.1177763808481D+00
    85  8.4000000000000D-01  9.8990148219599D-02  1.0362593964953D+00
    86  8.5000000000000D-01  5.9760398404660D-02  9.5048887176323D-01
    87  8.6000000000000D-01  2.1645323722388D-02  8.6103040833127D-01
    88  8.7000000000000D-01 -1.5253177128058D-02  7.6847534185101D-01
    89  8.8000000000000D-01 -5.0836176295237D-02  6.7343614059003D-01
    90  8.9000000000000D-01 -8.5008315268609D-02  5.7654158290999D-01
    91  9.0000000000000D-01 -1.1767840816997D-01  4.7843175520087D-01
    92  9.1000000000000D-01 -1.4876004452929D-01  3.7975291418214D-01
    93  9.2000000000000D-01 -1.7817218604527D-01  2.8115225936497D-01
    94  9.3000000000000D-01 -2.0583975169784D-01  1.8327266292417D-01
    95  9.4000000000000D-01 -2.3169418550243D-01  8.6747405234153D-02
    96  9.5000000000000D-01 -2.5567400117573D-01 -7.8050351401210D-03
    97  9.6000000000000D-01 -2.7772529802410D-01 -9.9786088159179D-02
    98  9.7000000000000D-01 -2.9780224246114D-01 -1.8862204730087D-01
    99  9.8000000000000D-01 -3.1586750972560D-01 -2.7376882534426D-01
   100  9.9000000000000D-01 -3.3189268058812D-01 -3.5471646485505D-01
   101  1.0000000000000D+00 -3.4585858811499D-01 -4.3099335917513D-01
   102  1.0100000000000D+00 -3.5775560989370D-01 -5.0217014207493D-01
   103  1.0200000000000D+00 -3.6758390151297D-01 -5.6786320700796D-01
   104  1.0300000000000D+00 -3.7535356755381D-01 -6.2773782028976D-01
   105  1.0400000000000D+00 -3.8108476679238D-01 -6.8151079579977D-01
   106  1.0500000000000D+00 -3.8480774891143D-01 -7.2895270324398D-01
   107  1.0600000000000D+00 -3.8656282055266D-01 -7.6988958604756D-01
   108  1.0700000000000D+00 -3.8640023916338D-01 -8.0420416963698D-01
   109  1.0800000000000D+00 -3.8438003376036D-01 -8.3183654597399D-01
   110  1.0900000000000D+00 -3.8057175232470D-01 -8.5278432471566D-01
   111  1.1000000000000D+00 -3.7505413629856D-01 -8.6710224719240D-01
   112  1.1100000000000D+00 -3.6791472330520D-01 -8.7490126441700D-01
   113  1.1200000000000D+00 -3.5924937992363D-01 -8.7634708584143D-01
   114  1.1300000000000D+00 -3.4916176702804D-01 -8.7165821085896D-01
   115  1.1400000000000D+00 -3.3776274084106D-01 -8.6110346003619D-01
   116  1.1500000000000D+00 -3.2516969360601D-01 -8.4499902899546D-01
   117  1.1600000000000D+00 -3.1150583835701D-01 -8.2370509239962D-01
   118  1.1700000000000D+00 -2.9689944285499D-01 -7.9762199016076D-01
   119  1.1800000000000D+00 -2.8148301832940D-01 -7.6718603254404D-01
   120  1.1900000000000D+00 -2.6539246925169D-01 -7.3286496555140D-01
   121  1.2000000000000D+00 -2.4876621080174D-01 -6.9515314153369D-01
   122  1.2100000000000D+00 -2.3174426099692D-01 -6.5456644247260D-01
   123  1.2200000000000D+00 -2.1446731500989D-01 -6.1163700799505D-01
   124  1.2300000000000D+00 -1.9707580936366D-01 -5.6690782165567D-01
   125  1.2400000000000D+00 -1.7970898389802D-01 -5.2092721081130D-01
   126  1.2500000000000D+00 -1.6250394964678D-01 -4.7424331759333D-01
   127  1.2600000000000D+00 -1.4559477078371D-01 -4.2739859901288D-01
   128  1.2700000000000D+00 -1.2911156876028D-01 -3.8092441415604D-01
   129  1.2800000000000D+00 -1.1317965683203D-01 -3.3533575727156D-01
   130  1.2900000000000D+00 -9.7918712826440D-02 -2.9112619346299D-01
   131  1.3000000000000D+00 -8.3441997871983D-02 -2.4876305278027D-01
   132  1.3100000000000D+00 -6.9855628697537D-02 -2.0868293798890D-01
   133  1.3200000000000D+00 -5.7257910266651D-02 -1.7128759548187D-01
   134  1.3300000000000D+00 -4.5738735574473D-02 -1.3694019921860D-01
   135  1.3400000000000D+00 -3.5379058857548D-02 -1.0596209368324D-01
   136  1.3500000000000D+00 -2.6250447233349D-02 -7.8630033057018D-02
   137  1.3600000000000D+00 -1.8414716456116D-02 -5.5173958596739D-02
   138  1.3700000000000D+00 -1.1928211888580D-02 -3.5789293198485D-02
   139  1.3800000000000D+00 -6.8063043151250D-03 -2.0526320323262D-02
   140  1.3900000000000D+00 -3.1092969345983D-03 -9.5579074319507D-03
   141  1.4000000000000D+00 -9.6455694928399D-04 -3.2636809341237D-03
   142  1.4100000000000D+00 -1.0133579814726D-04 -7.0483873074199D-04
   143  1.4200000000000D+00  5.2935723254327D-05 -2.1965905762206D-05
   144  1.4300000000000D+00 -1.2119668734706D-05 -9.8298068369646D-06
   145  1.4400000000000D+00 -1.5830423950936D-05 -1.9342265693888D-05
   146  1.4500000000000D+00  3.3058229678306D-06  1.1107013898677D-06
   147  1.4600000000000D+00  1.2415504678631D-06  7.3764191176855D-07
   148  1.4700000000000D+00  2.3023444436695D-07  1.8136492831389D-06
   149  1.4800000000000D+00  0.0000000000000D+00  0.0000000000000D+00
   150  1.4900000000000D+00  0.0000000000000D+00  0.0000000000000D+00
   151  1.5000000000000D+00  0.0000000000000D+00  0.0000000000000D+00
   152  1.5100000000000D+00  0.0000000000000D+00  0.0000000000000D+00
   153  1.5200000000000D+00  0.0000000000000D+00  0.0000000000000D+00
   154  1.5300000000000D+00  0.0000000000000D+00  0.0000000000000D+00
   155  1.5400000000000D+00  0.0000000000000D+00  0.0000000000000D+00
   156  1.5500000000000D+00  0.0000000000000D+00  0.0000000000000D+00
   157  1.5600000000000D+00  0.0000000000000D+00  0.0000000000000D+00
   158  1.5700000000000D+00  0.0000000000000D+00  0.0000000000000D+00
   159  1.5800000000000D+00  0.0000000000000D+00  0.0000000000000D+00
   160  1.5900000000000D+00  0.0000000000000D+00  0.0000000000000D+00
   161  1.6000000000000D+00  0.0000000000000D+00  0.0000000000000D+00
   162  1.6100000000000D+00  0.0000000000000D+00  0.0000000000000D+00
   163  1.6200000000000D+00  0.0000000000000D+00  0.0000000000000D+00
   164  1.6300000000000D+00  0.0000000000000D+00  0.0000000000000D+00
   165  1.6400000000000D+00  0.0000000000000D+00  0.0000000000000D+00
   166  1.6500000000000D+00  0.0000000000000D+00  0.0000000000000D+00
   167  1.6600000000000D+00  0.0000000000000D+00  0.0000000000000D+00
   168  1.6700000000000D+00  0.0000000000000D+00  0.0000000000000D+00
   169  1.6800000000000D+00  0.0000000000000D+00  0.0000000000000D+00
   170  1.6900000000000D+00  0.0000000000000D+00  0.0000000000000D+00
   171  1.7000000000000D+00  0.0000000000000D+00  0.0000000000000D+00
   172  1.7100000000000D+00  0.0000000000000D+00  0.0000000000000D+00
   173  1.7200000000000D+00  0.0000000000000D+00  0.0000000000000D+00
   174  1.7300000000000D+00  0.0000000000000D+00  0.0000000000000D+00
   175  1.7400000000000D+00  0.0000000000000D+00  0.0000000000000D+00
   176  1.7500000000000D+00  0.0000000000000D+00  0.0000000000000D+00
   177  1.7600000000000D+00  0.0000000000000D+00  0.0000000000000D+00
   178  1.7700000000000D+00  0.0000000000000D+00  0.0000000000000D+00
   179  1.7800000000000D+00  0.0000000000000D+00  0.0000000000000D+00
   180  1.7900000000000D+00  0.0000000000000D+00  0.0000000000000D+00
   181  1.8000000000000D+00  0.0000000000000D+00  0.0000000000000D+00
   182  1.8100000000000D+00  0.0000000000000D+00  0.0000000000000D+00
   183  1.8200000000000D+00  0.0000000000000D+00  0.0000000000000D+00
   184  1.8300000000000D+00  0.0000000000000D+00  0.0000000000000D+00
   185  1.8400000000000D+00  0.0000000000000D+00  0.0000000000000D+00
   186  1.8500000000000D+00  0.0000000000000D+00  0.0000000000000D+00
   187  1.8600000000000D+00  0.0000000000000D+00  0.0000000000000D+00
   188  1.8700000000000D+00  0.0000000000000D+00  0.0000000000000D+00
   189  1.8800000000000D+00  0.0000000000000D+00  0.0000000000000D+00
   190  1.8900000000000D+00  0.0000000000000D+00  0.0000000000000D+00
   191  1.9000000000000D+00  0.0000000000000D+00  0.0000000000000D+00
   192  1.9100000000000D+00  0.0000000000000D+00  0.0000000000000D+00
   193  1.9200000000000D+00  0.0000000000000D+00  0.0000000000000D+00
   194  1.9300000000000D+00  0.0000000000000D+00  0.0000000000000D+00
   195  1.9400000000000D+00  0.0000000000000D+00  0.0000000000000D+00
   196  1.9500000000000D+00  0.0000000000000D+00  0.0000000000000D+00
   197  1.9600000000000D+00  0.0000000000000D+00  0.0000000000000D+00
   198  1.9700000000000D+00  0.0000000000000D+00  0.0000000000000D+00
   199  1.9800000000000D+00  0.0000000000000D+00  0.0000000000000D+00
   200  1.9900000000000D+00  0.0000000000000D+00  0.0000000000000D+00
   201  2.0000000000000D+00  0.0000000000000D+00  0.0000000000000D+00
   202  2.0100000000000D+00  0.0000000000000D+00  0.0000000000000D+00
   203  2.0200000000000D+00  0.0000000000000D+00  0.0000000000000D+00
   204  2.0300000000000D+00  0.0000000000000D+00  0.0000000000000D+00
   205  2.0400000000000D+00  0.0000000000000D+00  0.0000000000000D+00
   206  2.0500000000000D+00  0.0000000000000D+00  0.0000000000000D+00
   207  2.0600000000000D+00  0.0000000000000D+00  0.0000000000000D+00
   208  2.0700000000000D+00  0.0000000000000D+00  0.0000000000000D+00
   209  2.0800000000000D+00  0.0000000000000D+00  0.0000000000000D+00
   210  2.0900000000000D+00  0.0000000000000D+00  0.0000000000000D+00
   211  2.1000000000000D+00  0.0000000000000D+00  0.0000000000000D+00
   212  2.1100000000000D+00  0.0000000000000D+00  0.0000000000000D+00
   213  2.1200000000000D+00  0.0000000000000D+00  0.0000000000000D+00
   214  2.1300000000000D+00  0.0000000000000D+00  0.0000000000000D+00
   215  2.1400000000000D+00  0.0000000000000D+00  0.0000000000000D+00
   216  2.1500000000000D+00  0.0000000000000D+00  0.0000000000000D+00
   217  2.1600000000000D+00  0.0000000000000D+00  0.0000000000000D+00
   218  2.1700000000000D+00  0.0000000000000D+00  0.0000000000000D+00
   219  2.1800000000000D+00  0.0000000000000D+00  0.0000000000000D+00
   220  2.1900000000000D+00  0.0000000000000D+00  0.0000000000000D+00
   221  2.2000000000000D+00  0.0000000000000D+00  0.0000000000000D+00
   222  2.2100000000000D+00  0.0000000000000D+00  0.0000000000000D+00
   223  2.2200000000000D+00  0.0000000000000D+00  0.0000000000000D+00
   224  2.2300000000000D+00  0.0000000000000D+00  0.0000000000000D+00
   225  2.2400000000000D+00  0.0000000000000D+00  0.0000000000000D+00
   226  2.2500000000000D+00  0.0000000000000D+00  0.0000000000000D+00
   227  2.2600000000000D+00  0.0000000000000D+00  0.0000000000000D+00
   228  2.2700000000000D+00  0.0000000000000D+00  0.0000000000000D+00
   229  2.2800000000000D+00  0.0000000000000D+00  0.0000000000000D+00
   230  2.2900000000000D+00  0.0000000000000D+00  0.0000000000000D+00
   231  2.3000000000000D+00  0.0000000000000D+00  0.0000000000000D+00
   232  2.3100000000000D+00  0.0000000000000D+00  0.0000000000000D+00
   233  2.3200000000000D+00  0.0000000000000D+00  0.0000000000000D+00
   234  2.3300000000000D+00  0.0000000000000D+00  0.0000000000000D+00
   235  2.3400000000000D+00  0.0000000000000D+00  0.0000000000000D+00
   236  2.3500000000000D+00  0.0000000000000D+00  0.0000000000000D+00
   237  2.3600000000000D+00  0.0000000000000D+00  0.0000000000000D+00
   238  2.3700000000000D+00  0.0000000000000D+00  0.0000000000000D+00
   239  2.3800000000000D+00  0.0000000000000D+00  0.0000000000000D+00
   240  2.3900000000000D+00  0.0000000000000D+00  0.0000000000000D+00
   241  2.4000000000000D+00  0.0000000000000D+00  0.0000000000000D+00
   242  2.4100000000000D+00  0.0000000000000D+00  0.0000000000000D+00
   243  2.4200000000000D+00  0.0000000000000D+00  0.0000000000000D+00
   244  2.4300000000000D+00  0.0000000000000D+00  0.0000000000000D+00
   245  2.4400000000000D+00  0.0000000000000D+00  0.0000000000000D+00
   246  2.4500000000000D+00  0.0000000000000D+00  0.0000000000000D+00
   247  2.4600000000000D+00  0.0000000000000D+00  0.0000000000000D+00
   248  2.4700000000000D+00  0.0000000000000D+00  0.0000000000000D+00
   249  2.4800000000000D+00  0.0000000000000D+00  0.0000000000000D+00
   250  2.4900000000000D+00  0.0000000000000D+00  0.0000000000000D+00
   251  2.5000000000000D+00  0.0000000000000D+00  0.0000000000000D+00
   252  2.5100000000000D+00  0.0000000000000D+00  0.0000000000000D+00
   253  2.5200000000000D+00  0.0000000000000D+00  0.0000000000000D+00
   254  2.5300000000000D+00  0.0000000000000D+00  0.0000000000000D+00
   255  2.5400000000000D+00  0.0000000000000D+00  0.0000000000000D+00
   256  2.5500000000000D+00  0.0000000000000D+00  0.0000000000000D+00
   257  2.5600000000000D+00  0.0000000000000D+00  0.0000000000000D+00
   258  2.5700000000000D+00  0.0000000000000D+00  0.0000000000000D+00
   259  2.5800000000000D+00  0.0000000000000D+00  0.0000000000000D+00
   260  2.5900000000000D+00  0.0000000000000D+00  0.0000000000000D+00
   261  2.6000000000000D+00  0.0000000000000D+00  0.0000000000000D+00
   262  2.6100000000000D+00  0.0000000000000D+00  0.0000000000000D+00
   263  2.6200000000000D+00  0.0000000000000D+00  0.0000000000000D+00
   264  2.6300000000000D+00  0.0000000000000D+00  0.0000000000000D+00
   265  2.6400000000000D+00  0.0000000000000D+00  0.0000000000000D+00
   266  2.6500000000000D+00  0.0000000000000D+00  0.0000000000000D+00
   267  2.6600000000000D+00  0.0000000000000D+00  0.0000000000000D+00
   268  2.6700000000000D+00  0.0000000000000D+00  0.0000000000000D+00
   269  2.6800000000000D+00  0.0000000000000D+00  0.0000000000000D+00
   270  2.6900000000000D+00  0.0000000000000D+00  0.0000000000000D+00
   271  2.7000000000000D+00  0.0000000000000D+00  0.0000000000000D+00
   272  2.7100000000000D+00  0.0000000000000D+00  0.0000000000000D+00
   273  2.7200000000000D+00  0.0000000000000D+00  0.0000000000000D+00
   274  2.7300000000000D+00  0.0000000000000D+00  0.0000000000000D+00
   275  2.7400000000000D+00  0.0000000000000D+00  0.0000000000000D+00
   276  2.7500000000000D+00  0.0000000000000D+00  0.0000000000000D+00
   277  2.7600000000000D+00  0.0000000000000D+00  0.0000000000000D+00
   278  2.7700000000000D+00  0.0000000000000D+00  0.0000000000000D+00
   279  2.7800000000000D+00  0.0000000000000D+00  0.0000000000000D+00
   280  2.7900000000000D+00  0.0000000000000D+00  0.0000000000000D+00
   281  2.8000000000000D+00  0.0000000000000D+00  0.0000000000000D+00
   282  2.8100000000000D+00  0.0000000000000D+00  0.0000000000000D+00
   283  2.8200000000000D+00  0.0000000000000D+00  0.0000000000000D+00
   284  2.8300000000000D+00  0.0000000000000D+00  0.0000000000000D+00
   285  2.8400000000000D+00  0.0000000000000D+00  0.0000000000000D+00
   286  2.8500000000000D+00  0.0000000000000D+00  0.0000000000000D+00
   287  2.8600000000000D+00  0.0000000000000D+00  0.0000000000000D+00
   288  2.8700000000000D+00  0.0000000000000D+00  0.0000000000000D+00
   289  2.8800000000000D+00  0.0000000000000D+00  0.0000000000000D+00
   290  2.8900000000000D+00  0.0000000000000D+00  0.0000000000000D+00
   291  2.9000000000000D+00  0.0000000000000D+00  0.0000000000000D+00
   292  2.9100000000000D+00  0.0000000000000D+00  0.0000000000000D+00
   293  2.9200000000000D+00  0.0000000000000D+00  0.0000000000000D+00
   294  2.9300000000000D+00  0.0000000000000D+00  0.0000000000000D+00
   295  2.9400000000000D+00  0.0000000000000D+00  0.0000000000000D+00
   296  2.9500000000000D+00  0.0000000000000D+00  0.0000000000000D+00
   297  2.9600000000000D+00  0.0000000000000D+00  0.0000000000000D+00
   298  2.9700000000000D+00  0.0000000000000D+00  0.0000000000000D+00
   299  2.9800000000000D+00  0.0000000000000D+00  0.0000000000000D+00
   300  2.9900000000000D+00  0.0000000000000D+00  0.0000000000000D+00
   301  3.0000000000000D+00  0.0000000000000D+00  0.0000000000000D+00
   302  3.0100000000000D+00  0.0000000000000D+00  0.0000000000000D+00
   303  3.0200000000000D+00  0.0000000000000D+00  0.0000000000000D+00
   304  3.0300000000000D+00  0.0000000000000D+00  0.0000000000000D+00
   305  3.0400000000000D+00  0.0000000000000D+00  0.0000000000000D+00
   306  3.0500000000000D+00  0.0000000000000D+00  0.0000000000000D+00
   307  3.0600000000000D+00  0.0000000000000D+00  0.0000000000000D+00
   308  3.0700000000000D+00  0.0000000000000D+00  0.0000000000000D+00
   309  3.0800000000000D+00  0.0000000000000D+00  0.0000000000000D+00
   310  3.0900000000000D+00  0.0000000000000D+00  0.0000000000000D+00
   311  3.1000000000000D+00  0.0000000000000D+00  0.0000000000000D+00
   312  3.1100000000000D+00  0.0000000000000D+00  0.0000000000000D+00
   313  3.1200000000000D+00  0.0000000000000D+00  0.0000000000000D+00
   314  3.1300000000000D+00  0.0000000000000D+00  0.0000000000000D+00
   315  3.1400000000000D+00  0.0000000000000D+00  0.0000000000000D+00
   316  3.1500000000000D+00  0.0000000000000D+00  0.0000000000000D+00
   317  3.1600000000000D+00  0.0000000000000D+00  0.0000000000000D+00
   318  3.1700000000000D+00  0.0000000000000D+00  0.0000000000000D+00
   319  3.1800000000000D+00  0.0000000000000D+00  0.0000000000000D+00
   320  3.1900000000000D+00  0.0000000000000D+00  0.0000000000000D+00
   321  3.2000000000000D+00  0.0000000000000D+00  0.0000000000000D+00
   322  3.2100000000000D+00  0.0000000000000D+00  0.0000000000000D+00
   323  3.2200000000000D+00  0.0000000000000D+00  0.0000000000000D+00
   324  3.2300000000000D+00  0.0000000000000D+00  0.0000000000000D+00
   325  3.2400000000000D+00  0.0000000000000D+00  0.0000000000000D+00
   326  3.2500000000000D+00  0.0000000000000D+00  0.0000000000000D+00
   327  3.2600000000000D+00  0.0000000000000D+00  0.0000000000000D+00
   328  3.2700000000000D+00  0.0000000000000D+00  0.0000000000000D+00
   329  3.2800000000000D+00  0.0000000000000D+00  0.0000000000000D+00
   330  3.2900000000000D+00  0.0000000000000D+00  0.0000000000000D+00
   331  3.3000000000000D+00  0.0000000000000D+00  0.0000000000000D+00
   332  3.3100000000000D+00  0.0000000000000D+00  0.0000000000000D+00
   333  3.3200000000000D+00  0.0000000000000D+00  0.0000000000000D+00
   334  3.3300000000000D+00  0.0000000000000D+00  0.0000000000000D+00
   335  3.3400000000000D+00  0.0000000000000D+00  0.0000000000000D+00
   336  3.3500000000000D+00  0.0000000000000D+00  0.0000000000000D+00
   337  3.3600000000000D+00  0.0000000000000D+00  0.0000000000000D+00
   338  3.3700000000000D+00  0.0000000000000D+00  0.0000000000000D+00
   339  3.3800000000000D+00  0.0000000000000D+00  0.0000000000000D+00
   340  3.3900000000000D+00  0.0000000000000D+00  0.0000000000000D+00
   341  3.4000000000000D+00  0.0000000000000D+00  0.0000000000000D+00
   342  3.4100000000000D+00  0.0000000000000D+00  0.0000000000000D+00
   343  3.4200000000000D+00  0.0000000000000D+00  0.0000000000000D+00
   344  3.4300000000000D+00  0.0000000000000D+00  0.0000000000000D+00
   345  3.4400000000000D+00  0.0000000000000D+00  0.0000000000000D+00
   346  3.4500000000000D+00  0.0000000000000D+00  0.0000000000000D+00
   347  3.4600000000000D+00  0.0000000000000D+00  0.0000000000000D+00
   348  3.4700000000000D+00  0.0000000000000D+00  0.0000000000000D+00
   349  3.4800000000000D+00  0.0000000000000D+00  0.0000000000000D+00
   350  3.4900000000000D+00  0.0000000000000D+00  0.0000000000000D+00
   351  3.5000000000000D+00  0.0000000000000D+00  0.0000000000000D+00
   352  3.5100000000000D+00  0.0000000000000D+00  0.0000000000000D+00
   353  3.5200000000000D+00  0.0000000000000D+00  0.0000000000000D+00
   354  3.5300000000000D+00  0.0000000000000D+00  0.0000000000000D+00
   355  3.5400000000000D+00  0.0000000000000D+00  0.0000000000000D+00
   356  3.5500000000000D+00  0.0000000000000D+00  0.0000000000000D+00
   357  3.5600000000000D+00  0.0000000000000D+00  0.0000000000000D+00
   358  3.5700000000000D+00  0.0000000000000D+00  0.0000000000000D+00
   359  3.5800000000000D+00  0.0000000000000D+00  0.0000000000000D+00
   360  3.5900000000000D+00  0.0000000000000D+00  0.0000000000000D+00
   361  3.6000000000000D+00  0.0000000000000D+00  0.0000000000000D+00
   362  3.6100000000000D+00  0.0000000000000D+00  0.0000000000000D+00
   363  3.6200000000000D+00  0.0000000000000D+00  0.0000000000000D+00
   364  3.6300000000000D+00  0.0000000000000D+00  0.0000000000000D+00
   365  3.6400000000000D+00  0.0000000000000D+00  0.0000000000000D+00
   366  3.6500000000000D+00  0.0000000000000D+00  0.0000000000000D+00
   367  3.6600000000000D+00  0.0000000000000D+00  0.0000000000000D+00
   368  3.6700000000000D+00  0.0000000000000D+00  0.0000000000000D+00
   369  3.6800000000000D+00  0.0000000000000D+00  0.0000000000000D+00
   370  3.6900000000000D+00  0.0000000000000D+00  0.0000000000000D+00
   371  3.7000000000000D+00  0.0000000000000D+00  0.0000000000000D+00
   372  3.7100000000000D+00  0.0000000000000D+00  0.0000000000000D+00
   373  3.7200000000000D+00  0.0000000000000D+00  0.0000000000000D+00
   374  3.7300000000000D+00  0.0000000000000D+00  0.0000000000000D+00
   375  3.7400000000000D+00  0.0000000000000D+00  0.0000000000000D+00
   376  3.7500000000000D+00  0.0000000000000D+00  0.0000000000000D+00
   377  3.7600000000000D+00  0.0000000000000D+00  0.0000000000000D+00
   378  3.7700000000000D+00  0.0000000000000D+00  0.0000000000000D+00
   379  3.7800000000000D+00  0.0000000000000D+00  0.0000000000000D+00
   380  3.7900000000000D+00  0.0000000000000D+00  0.0000000000000D+00
   381  3.8000000000000D+00  0.0000000000000D+00  0.0000000000000D+00
   382  3.8100000000000D+00  0.0000000000000D+00  0.0000000000000D+00
   383  3.8200000000000D+00  0.0000000000000D+00  0.0000000000000D+00
   384  3.8300000000000D+00  0.0000000000000D+00  0.0000000000000D+00
   385  3.8400000000000D+00  0.0000000000000D+00  0.0000000000000D+00
   386  3.8500000000000D+00  0.0000000000000D+00  0.0000000000000D+00
   387  3.8600000000000D+00  0.0000000000000D+00  0.0000000000000D+00
   388  3.8700000000000D+00  0.0000000000000D+00  0.0000000000000D+00
   389  3.8800000000000D+00  0.0000000000000D+00  0.0000000000000D+00
   390  3.8900000000000D+00  0.0000000000000D+00  0.0000000000000D+00
   391  3.9000000000000D+00  0.0000000000000D+00  0.0000000000000D+00
   392  3.9100000000000D+00  0.0000000000000D+00  0.0000000000000D+00
   393  3.9200000000000D+00  0.0000000000000D+00  0.0000000000000D+00
   394  3.9300000000000D+00  0.0000000000000D+00  0.0000000000000D+00
   395  3.9400000000000D+00  0.0000000000000D+00  0.0000000000000D+00
   396  3.9500000000000D+00  0.0000000000000D+00  0.0000000000000D+00
   397  3.9600000000000D+00  0.0000000000000D+00  0.0000000000000D+00
   398  3.9700000000000D+00  0.0000000000000D+00  0.0000000000000D+00
   399  3.9800000000000D+00  0.0000000000000D+00  0.0000000000000D+00
   400  3.9900000000000D+00  0.0000000000000D+00  0.0000000000000D+00
   401  4.0000000000000D+00  0.0000000000000D+00  0.0000000000000D+00
   402  4.0100000000000D+00  0.0000000000000D+00  0.0000000000000D+00
   403  4.0200000000000D+00  0.0000000000000D+00  0.0000000000000D+00
   404  4.0300000000000D+00  0.0000000000000D+00  0.0000000000000D+00
   405  4.0400000000000D+00  0.0000000000000D+00  0.0000000000000D+00
   406  4.0500000000000D+00  0.0000000000000D+00  0.0000000000000D+00
   407  4.0600000000000D+00  0.0000000000000D+00  0.0000000000000D+00
   408  4.0700000000000D+00  0.0000000000000D+00  0.0000000000000D+00
   409  4.0800000000000D+00  0.0000000000000D+00  0.0000000000000D+00
   410  4.0900000000000D+00  0.0000000000000D+00  0.0000000000000D+00
   411  4.1000000000000D+00  0.0000000000000D+00  0.0000000000000D+00
   412  4.1100000000000D+00  0.0000000000000D+00  0.0000000000000D+00
   413  4.1200000000000D+00  0.0000000000000D+00  0.0000000000000D+00
   414  4.1300000000000D+00  0.0000000000000D+00  0.0000000000000D+00
   415  4.1400000000000D+00  0.0000000000000D+00  0.0000000000000D+00
   416  4.1500000000000D+00  0.0000000000000D+00  0.0000000000000D+00
   417  4.1600000000000D+00  0.0000000000000D+00  0.0000000000000D+00
   418  4.1700000000000D+00  0.0000000000000D+00  0.0000000000000D+00
   419  4.1800000000000D+00  0.0000000000000D+00  0.0000000000000D+00
   420  4.1900000000000D+00  0.0000000000000D+00  0.0000000000000D+00
   421  4.2000000000000D+00  0.0000000000000D+00  0.0000000000000D+00
   422  4.2100000000000D+00  0.0000000000000D+00  0.0000000000000D+00