Os    ONCVPSP-3.3.0  r_core=   1.51352   1.55006   1.55006   2.27051
     76.0000     16.0000      220117    zatom,zion,pspd
     8      11   3     4   600     0    pspcod,pspxc,lmax,lloc,mmax,r2well
  5.99000000  0.00000000  0.00000000    rchrg fchrg qchrg
     2     2     2     2     0    nproj
     1     1           extension_switch
   0                         7.7807122566151D+00 -1.4537403734031D+00
     1  0.0000000000000D+00  3.2909003300219D-10  2.4140568433140D-09
     2  1.0000000000000D-02  5.5373580589128D-02 -6.7833643199521D-02
     3  2.0000000000000D-02  1.1069003619446D-01 -1.3526233012643D-01
     4  3.0000000000000D-02  1.6589195416007D-01 -2.0188482701207D-01
     5  4.0000000000000D-02  2.2092135250386D-01 -2.6730729868040D-01
     6  5.0000000000000D-02  2.7571941021489D-01 -3.3114689243027D-01
     7  6.0000000000000D-02  3.3022621526605D-01 -3.9303518515982D-01
     8  7.0000000000000D-02  3.8438053585563D-01 -4.5262145102073D-01
     9  8.0000000000000D-02  4.3811962006218D-01 -5.0957570930426D-01
    10  9.0000000000000D-02  4.9137902869379D-01 -5.6359151521782D-01
    11  1.0000000000000D-01  5.4409250564098D-01 -6.1438845967161D-01
    12  1.1000000000000D-01  5.9619188950778D-01 -6.6171434811339D-01
    13  1.2000000000000D-01  6.4760706970558D-01 -7.0534703277277D-01
    14  1.3000000000000D-01  6.9826598955611D-01 -7.4509587734892D-01
    15  1.4000000000000D-01  7.4809469827322D-01 -7.8080283813185D-01
    16  1.5000000000000D-01  7.9701745298501D-01 -8.1234315072497D-01
    17  1.6000000000000D-01  8.4495687122993D-01 -8.3962561686171D-01
    18  1.7000000000000D-01  8.9183413362027D-01 -8.6259249121416D-01
    19  1.8000000000000D-01  9.3756923562578D-01 -8.8121897350104D-01
    20  1.9000000000000D-01  9.8208128669744D-01 -8.9551231654388D-01
    21  2.0000000000000D-01  1.0252888542377D+00 -9.0551056612213D-01
    22  2.1000000000000D-01  1.0671103492371D+00 -9.1128095346746D-01
    23  2.2000000000000D-01  1.1074644497505D+00 -9.1291796594770D-01
    24  2.3000000000000D-01  1.1462705577811D+00 -9.1054112585642D-01
    25  2.4000000000000D-01  1.1834492845983D+00 -9.0429251118358D-01
    26  2.5000000000000D-01  1.2189229590243D+00 -8.9433405574196D-01
    27  2.6000000000000D-01  1.2526161528165D+00 -8.8084466901130D-01
    28  2.7000000000000D-01  1.2844562169261D+00 -8.6401721849751D-01
    29  2.8000000000000D-01  1.3143738221574D+00 -8.4405541924776D-01
    30  2.9000000000000D-01  1.3423034975774D+00 -8.2117067638962D-01
    31  3.0000000000000D-01  1.3681841599356D+00 -7.9557892715120D-01
    32  3.1000000000000D-01  1.3919596273577D+00 -7.6749752875833D-01
    33  3.2000000000000D-01  1.4135791106670D+00 -7.3714223789226D-01
    34  3.3000000000000D-01  1.4329976758688D+00 -7.0472432603123D-01
    35  3.4000000000000D-01  1.4501766716030D+00 -6.7044787300870D-01
    36  3.5000000000000D-01  1.4650841157208D+00 -6.3450727852048D-01
    37  3.6000000000000D-01  1.4776950355805D+00 -5.9708502813701D-01
    38  3.7000000000000D-01  1.4879917571631D+00 -5.5834974666280D-01
    39  3.8000000000000D-01  1.4959641386906D+00 -5.1845456748272D-01
    40  3.9000000000000D-01  1.5016097450745D+00 -4.7753584189581D-01
    41  4.0000000000000D-01  1.5049339602140D+00 -4.3571220742544D-01
    42  4.1000000000000D-01  1.5059500349131D+00 -3.9308402877455D-01
    43  4.2000000000000D-01  1.5046790689582D+00 -3.4973321953771D-01
    44  4.3000000000000D-01  1.5011499267103D+00 -3.0572344706503D-01
    45  4.4000000000000D-01  1.4953990863830D+00 -2.6110071707196D-01
    46  4.5000000000000D-01  1.4874704240067D+00 -2.1589432878579D-01
    47  4.6000000000000D-01  1.4774149338998D+00 -1.7011818569508D-01
    48  4.7000000000000D-01  1.4652903882737D+00 -1.2377244140171D-01
    49  4.8000000000000D-01  1.4511609393743D+00 -7.6845454747985D-02
    50  4.9000000000000D-01  1.4350966683023D+00 -2.9316023379325D-02
    51  5.0000000000000D-01  1.4171730853477D+00  1.8844139719103D-02
    52  5.1000000000000D-01  1.3974705873040D+00  6.7667726337947D-02
    53  5.2000000000000D-01  1.3760738777982D+00  1.1718899307893D-01
    54  5.3000000000000D-01  1.3530713571629D+00  1.6744080763794D-01
    55  5.4000000000000D-01  1.3285544887877D+00  2.1845163009733D-01
    56  5.5000000000000D-01  1.3026171492090D+00  2.7024247974740D-01
    57  5.6000000000000D-01  1.2753549694275D+00  3.2282393901115D-01
    58  5.7000000000000D-01  1.2468646750742D+00  3.7619324636960D-01
    59  5.8000000000000D-01  1.2172434330775D+00  4.3033152976677D-01
    60  5.9000000000000D-01  1.1865882124166D+00  4.8520123079926D-01
    61  6.0000000000000D-01  1.1549951663772D+00  5.4074376808961D-01
    62  6.1000000000000D-01  1.1225590434555D+00  5.9687748559025D-01
    63  6.2000000000000D-01  1.0893726336911D+00  6.5349592824053D-01
    64  6.3000000000000D-01  1.0555262567522D+00  7.1046648337059D-01
    65  6.4000000000000D-01  1.0211072975481D+00  7.6762942163669D-01
    66  6.5000000000000D-01  9.8619979452005D-01  8.2479736607589D-01
    67  6.6000000000000D-01  9.5088408505853D-01  8.8175521216447D-01
    68  6.7000000000000D-01  9.1523651173275D-01  9.3826051565775D-01
    69  6.8000000000000D-01  8.7932919219911D-01  9.9404435850763D-01
    70  6.9000000000000D-01  8.4322985479030D-01  1.0488126964039D+00
    71  7.0000000000000D-01  8.0700174089198D-01  1.1022481845676D+00
    72  7.1000000000000D-01  7.7070357429826D-01  1.1540124714280D+00
    73  7.2000000000000D-01  7.3438959680955D-01  1.2037489428015D+00
    74  7.3000000000000D-01  6.9810966841493D-01  1.2510858923006D+00
    75  7.4000000000000D-01  6.6190942949661D-01  1.2956400870178D+00
    76  7.5000000000000D-01  6.2583052161665D-01  1.3370206911353D+00
    77  7.6000000000000D-01  5.8991086261005D-01  1.3748335041043D+00
    78  7.7000000000000D-01  5.5418497092827D-01  1.4086854645390D+00
    79  7.8000000000000D-01  5.1868433345488D-01  1.4381893659853D+00
    80  7.9000000000000D-01  4.8343781037410D-01  1.4629687264339D+00
    81  8.0000000000000D-01  4.4847207011241D-01  1.4826627498355D+00
    82  8.1000000000000D-01  4.1381204690633D-01  1.4969313150489D+00
    83  8.2000000000000D-01  3.7948141318312D-01  1.5054599256476D+00
    84  8.3000000000000D-01  3.4550305868000D-01  1.5079645528742D+00
    85  8.4000000000000D-01  3.1189956807858D-01  1.5041963037895D+00
    86  8.5000000000000D-01  2.7869368889508D-01  1.4939458473387D+00
    87  8.6000000000000D-01  2.4590878144792D-01  1.4770475326540D+00
    88  8.7000000000000D-01  2.1356924292061D-01  1.4533831364246D+00
    89  8.8000000000000D-01  1.8170089784929D-01  1.4228851795797D+00
    90  8.9000000000000D-01  1.5033134778747D-01  1.3855397578063D+00
    91  9.0000000000000D-01  1.1949027343044D-01  1.3413888355300D+00
    92  9.1000000000000D-01  8.9209683113571D-02  1.2905319588606D+00
    93  9.2000000000000D-01  5.9524102323584D-02  1.2331273495842D+00
    94  9.3000000000000D-01  3.0470699671442D-02  1.1693923494922D+00
    95  9.4000000000000D-01  2.0893456601762D-03  1.0996031920872D+00
    96  9.5000000000000D-01 -2.5577398472469D-02  1.0240940868996D+00
    97  9.6000000000000D-01 -5.2484363554290D-02  9.4325561022300D-01
    98  9.7000000000000D-01 -7.8583927605338D-02  8.5753240483984D-01
    99  9.8000000000000D-01 -1.0382624292231D-01  7.6742020015191D-01
   100  9.9000000000000D-01 -1.2815953366114D-01  6.7346217321391D-01
   101  1.0000000000000D+00 -1.5153046141011D-01  5.7624467983449D-01
   102  1.0100000000000D+00 -1.7388455519133D-01  4.7639239356059D-01
   103  1.0200000000000D+00 -1.9516670131920D-01  3.7456289857924D-01
   104  1.0300000000000D+00 -2.1532168756851D-01  2.7144079044669D-01
   105  1.0400000000000D+00 -2.3429479522328D-01  1.6773134561352D-01
   106  1.0500000000000D+00 -2.5203243174093D-01  6.4153827346405D-02
   107  1.0600000000000D+00 -2.6848279600969D-01 -3.8565498436780D-02
   108  1.0700000000000D+00 -2.8359656756140D-01 -1.3970055916094D-01
   109  1.0800000000000D+00 -2.9732761055258D-01 -2.3853280102216D-01
   110  1.0900000000000D+00 -3.0963368292766D-01 -3.3435855857320D-01
   111  1.1000000000000D+00 -3.2047714087518D-01 -4.2649638109494D-01
   112  1.1100000000000D+00 -3.2982562852120D-01 -5.1429422750243D-01
   113  1.1200000000000D+00 -3.3765274278567D-01 -5.9713644179189D-01
   114  1.1300000000000D+00 -3.4393866348210D-01 -6.7445042283030D-01
   115  1.1400000000000D+00 -3.4867073887138D-01 -7.4571290370447D-01
   116  1.1500000000000D+00 -3.5184401738098D-01 -8.1045576058102D-01
   117  1.1600000000000D+00 -3.5346171663841D-01 -8.6827127497266D-01
   118  1.1700000000000D+00 -3.5353562173672D-01 -9.1881678015244D-01
   119  1.1800000000000D+00 -3.5208640509431D-01 -9.6181862641127D-01
   120  1.1900000000000D+00 -3.4914386151412D-01 -9.9707541066593D-01
   121  1.2000000000000D+00 -3.4474705287900D-01 -1.0244604230532D+00
   122  1.2100000000000D+00 -3.3894435784173D-01 -1.0439232710707D+00
   123  1.2200000000000D+00 -3.3179342307192D-01 -1.0554906521143D+00
   124  1.2300000000000D+00 -3.2336101402410D-01 -1.0592662571370D+00
   125  1.2400000000000D+00 -3.1372276429167D-01 -1.0554297974375D+00
   126  1.2500000000000D+00 -3.0296282346914D-01 -1.0442351538619D+00
   127  1.2600000000000D+00 -2.9117340556928D-01 -1.0260076655410D+00
   128  1.2700000000000D+00 -2.7845424092192D-01 -1.0011405826170D+00
   129  1.2800000000000D+00 -2.6491193507627D-01 -9.7009071244726D-01
   130  1.2900000000000D+00 -2.5065924080724D-01 -9.3337331027549D-01
   131  1.3000000000000D+00 -2.3581424967034D-01 -8.9155626818203D-01
   132  1.3100000000000D+00 -2.2049951019108D-01 -8.4525366151378D-01
   133  1.3200000000000D+00 -2.0484108222418D-01 -7.9511873229331D-01
   134  1.3300000000000D+00 -1.8896753669753D-01 -7.4183638642527D-01
   135  1.3400000000000D+00 -1.7300891102167D-01 -6.8611529038099D-01
   136  1.3500000000000D+00 -1.5709563191265D-01 -6.2867966510909D-01
   137  1.3600000000000D+00 -1.4135741677363D-01 -5.7026086995334D-01
   138  1.3700000000000D+00 -1.2592216618940D-01 -5.1158888097672D-01
   139  1.3800000000000D+00 -1.1091485983204D-01 -4.5338376588963D-01
   140  1.3900000000000D+00 -9.6456468374179D-02 -3.9634726031368D-01
   141  1.4000000000000D+00 -8.2662894116016D-02 -3.4115455086717D-01
   142  1.4100000000000D+00 -6.9643952291498D-02 -2.8844636448293D-01
   143  1.4200000000000D+00 -5.7502406023176D-02 -2.3882147162384D-01
   144  1.4300000000000D+00 -4.6333065063083D-02 -1.9282968757306D-01
   145  1.4400000000000D+00 -3.6221960994705D-02 -1.5096547701878D-01
   146  1.4500000000000D+00 -2.7245607751661D-02 -1.1366223547095D-01
   147  1.4600000000000D+00 -1.9470356984459D-02 -8.1287326698963D-02
   148  1.4700000000000D+00 -1.2956743182681D-02 -5.4158540129423D-02
   149  1.4800000000000D+00 -7.7246132236280D-03 -3.2394359518488D-02
   150  1.4900000000000D+00 -3.8232006848056D-03 -1.6211548367682D-02
   151  1.5000000000000D+00 -1.3849454659810D-03 -6.1726443849191D-03
   152  1.5100000000000D+00 -2.5301110328979D-04 -1.5272976942318D-03
   153  1.5200000000000D+00  5.6935774454058D-05 -7.3413768198973D-05
   154  1.5300000000000D+00  1.5162218166422D-05  2.6084719515390D-05
   155  1.5400000000000D+00 -2.5840880414084D-05 -5.7208568923326D-05
   156  1.5500000000000D+00 -2.2605512988054D-07 -5.5379325383069D-07
   157  1.5600000000000D+00  4.2755571146927D-06  6.9237403563884D-06
   158  1.5700000000000D+00  5.8328397480052D-08  5.7857034494520D-07
   159  1.5800000000000D+00  2.0657114181832D-07  2.0490180073681D-06
   160  1.5900000000000D+00  0.0000000000000D+00  0.0000000000000D+00
   161  1.6000000000000D+00  0.0000000000000D+00  0.0000000000000D+00
   162  1.6100000000000D+00  0.0000000000000D+00  0.0000000000000D+00
   163  1.6200000000000D+00  0.0000000000000D+00  0.0000000000000D+00
   164  1.6300000000000D+00  0.0000000000000D+00  0.0000000000000D+00
   165  1.6400000000000D+00  0.0000000000000D+00  0.0000000000000D+00
   166  1.6500000000000D+00  0.0000000000000D+00  0.0000000000000D+00
   167  1.6600000000000D+00  0.0000000000000D+00  0.0000000000000D+00
   168  1.6700000000000D+00  0.0000000000000D+00  0.0000000000000D+00
   169  1.6800000000000D+00  0.0000000000000D+00  0.0000000000000D+00
   170  1.6900000000000D+00  0.0000000000000D+00  0.0000000000000D+00
   171  1.7000000000000D+00  0.0000000000000D+00  0.0000000000000D+00
   172  1.7100000000000D+00  0.0000000000000D+00  0.0000000000000D+00
   173  1.7200000000000D+00  0.0000000000000D+00  0.0000000000000D+00
   174  1.7300000000000D+00  0.0000000000000D+00  0.0000000000000D+00
   175  1.7400000000000D+00  0.0000000000000D+00  0.0000000000000D+00
   176  1.7500000000000D+00  0.0000000000000D+00  0.0000000000000D+00
   177  1.7600000000000D+00  0.0000000000000D+00  0.0000000000000D+00
   178  1.7700000000000D+00  0.0000000000000D+00  0.0000000000000D+00
   179  1.7800000000000D+00  0.0000000000000D+00  0.0000000000000D+00
   180  1.7900000000000D+00  0.0000000000000D+00  0.0000000000000D+00
   181  1.8000000000000D+00  0.0000000000000D+00  0.0000000000000D+00
   182  1.8100000000000D+00  0.0000000000000D+00  0.0000000000000D+00
   183  1.8200000000000D+00  0.0000000000000D+00  0.0000000000000D+00
   184  1.8300000000000D+00  0.0000000000000D+00  0.0000000000000D+00
   185  1.8400000000000D+00  0.0000000000000D+00  0.0000000000000D+00
   186  1.8500000000000D+00  0.0000000000000D+00  0.0000000000000D+00
   187  1.8600000000000D+00  0.0000000000000D+00  0.0000000000000D+00
   188  1.8700000000000D+00  0.0000000000000D+00  0.0000000000000D+00
   189  1.8800000000000D+00  0.0000000000000D+00  0.0000000000000D+00
   190  1.8900000000000D+00  0.0000000000000D+00  0.0000000000000D+00
   191  1.9000000000000D+00  0.0000000000000D+00  0.0000000000000D+00
   192  1.9100000000000D+00  0.0000000000000D+00  0.0000000000000D+00
   193  1.9200000000000D+00  0.0000000000000D+00  0.0000000000000D+00
   194  1.9300000000000D+00  0.0000000000000D+00  0.0000000000000D+00
   195  1.9400000000000D+00  0.0000000000000D+00  0.0000000000000D+00
   196  1.9500000000000D+00  0.0000000000000D+00  0.0000000000000D+00
   197  1.9600000000000D+00  0.0000000000000D+00  0.0000000000000D+00
   198  1.9700000000000D+00  0.0000000000000D+00  0.0000000000000D+00
   199  1.9800000000000D+00  0.0000000000000D+00  0.0000000000000D+00
   200  1.9900000000000D+00  0.0000000000000D+00  0.0000000000000D+00
   201  2.0000000000000D+00  0.0000000000000D+00  0.0000000000000D+00
   202  2.0100000000000D+00  0.0000000000000D+00  0.0000000000000D+00
   203  2.0200000000000D+00  0.0000000000000D+00  0.0000000000000D+00
   204  2.0300000000000D+00  0.0000000000000D+00  0.0000000000000D+00
   205  2.0400000000000D+00  0.0000000000000D+00  0.0000000000000D+00
   206  2.0500000000000D+00  0.0000000000000D+00  0.0000000000000D+00
   207  2.0600000000000D+00  0.0000000000000D+00  0.0000000000000D+00
   208  2.0700000000000D+00  0.0000000000000D+00  0.0000000000000D+00
   209  2.0800000000000D+00  0.0000000000000D+00  0.0000000000000D+00
   210  2.0900000000000D+00  0.0000000000000D+00  0.0000000000000D+00
   211  2.1000000000000D+00  0.0000000000000D+00  0.0000000000000D+00
   212  2.1100000000000D+00  0.0000000000000D+00  0.0000000000000D+00
   213  2.1200000000000D+00  0.0000000000000D+00  0.0000000000000D+00
   214  2.1300000000000D+00  0.0000000000000D+00  0.0000000000000D+00
   215  2.1400000000000D+00  0.0000000000000D+00  0.0000000000000D+00
   216  2.1500000000000D+00  0.0000000000000D+00  0.0000000000000D+00
   217  2.1600000000000D+00  0.0000000000000D+00  0.0000000000000D+00
   218  2.1700000000000D+00  0.0000000000000D+00  0.0000000000000D+00
   219  2.1800000000000D+00  0.0000000000000D+00  0.0000000000000D+00
   220  2.1900000000000D+00  0.0000000000000D+00  0.0000000000000D+00
   221  2.2000000000000D+00  0.0000000000000D+00  0.0000000000000D+00
   222  2.2100000000000D+00  0.0000000000000D+00  0.0000000000000D+00
   223  2.2200000000000D+00  0.0000000000000D+00  0.0000000000000D+00
   224  2.2300000000000D+00  0.0000000000000D+00  0.0000000000000D+00
   225  2.2400000000000D+00  0.0000000000000D+00  0.0000000000000D+00
   226  2.2500000000000D+00  0.0000000000000D+00  0.0000000000000D+00
   227  2.2600000000000D+00  0.0000000000000D+00  0.0000000000000D+00
   228  2.2700000000000D+00  0.0000000000000D+00  0.0000000000000D+00
   229  2.2800000000000D+00  0.0000000000000D+00  0.0000000000000D+00
   230  2.2900000000000D+00  0.0000000000000D+00  0.0000000000000D+00
   231  2.3000000000000D+00  0.0000000000000D+00  0.0000000000000D+00
   232  2.3100000000000D+00  0.0000000000000D+00  0.0000000000000D+00
   233  2.3200000000000D+00  0.0000000000000D+00  0.0000000000000D+00
   234  2.3300000000000D+00  0.0000000000000D+00  0.0000000000000D+00
   235  2.3400000000000D+00  0.0000000000000D+00  0.0000000000000D+00
   236  2.3500000000000D+00  0.0000000000000D+00  0.0000000000000D+00
   237  2.3600000000000D+00  0.0000000000000D+00  0.0000000000000D+00
   238  2.3700000000000D+00  0.0000000000000D+00  0.0000000000000D+00
   239  2.3800000000000D+00  0.0000000000000D+00  0.0000000000000D+00
   240  2.3900000000000D+00  0.0000000000000D+00  0.0000000000000D+00
   241  2.4000000000000D+00  0.0000000000000D+00  0.0000000000000D+00
   242  2.4100000000000D+00  0.0000000000000D+00  0.0000000000000D+00
   243  2.4200000000000D+00  0.0000000000000D+00  0.0000000000000D+00
   244  2.4300000000000D+00  0.0000000000000D+00  0.0000000000000D+00
   245  2.4400000000000D+00  0.0000000000000D+00  0.0000000000000D+00
   246  2.4500000000000D+00  0.0000000000000D+00  0.0000000000000D+00
   247  2.4600000000000D+00  0.0000000000000D+00  0.0000000000000D+00
   248  2.4700000000000D+00  0.0000000000000D+00  0.0000000000000D+00
   249  2.4800000000000D+00  0.0000000000000D+00  0.0000000000000D+00
   250  2.4900000000000D+00  0.0000000000000D+00  0.0000000000000D+00
   251  2.5000000000000D+00  0.0000000000000D+00  0.0000000000000D+00
   252  2.5100000000000D+00  0.0000000000000D+00  0.0000000000000D+00
   253  2.5200000000000D+00  0.0000000000000D+00  0.0000000000000D+00
   254  2.5300000000000D+00  0.0000000000000D+00  0.0000000000000D+00
   255  2.5400000000000D+00  0.0000000000000D+00  0.0000000000000D+00
   256  2.5500000000000D+00  0.0000000000000D+00  0.0000000000000D+00
   257  2.5600000000000D+00  0.0000000000000D+00  0.0000000000000D+00
   258  2.5700000000000D+00  0.0000000000000D+00  0.0000000000000D+00
   259  2.5800000000000D+00  0.0000000000000D+00  0.0000000000000D+00
   260  2.5900000000000D+00  0.0000000000000D+00  0.0000000000000D+00
   261  2.6000000000000D+00  0.0000000000000D+00  0.0000000000000D+00
   262  2.6100000000000D+00  0.0000000000000D+00  0.0000000000000D+00
   263  2.6200000000000D+00  0.0000000000000D+00  0.0000000000000D+00
   264  2.6300000000000D+00  0.0000000000000D+00  0.0000000000000D+00
   265  2.6400000000000D+00  0.0000000000000D+00  0.0000000000000D+00
   266  2.6500000000000D+00  0.0000000000000D+00  0.0000000000000D+00
   267  2.6600000000000D+00  0.0000000000000D+00  0.0000000000000D+00
   268  2.6700000000000D+00  0.0000000000000D+00  0.0000000000000D+00
   269  2.6800000000000D+00  0.0000000000000D+00  0.0000000000000D+00
   270  2.6900000000000D+00  0.0000000000000D+00  0.0000000000000D+00
   271  2.7000000000000D+00  0.0000000000000D+00  0.0000000000000D+00
   272  2.7100000000000D+00  0.0000000000000D+00  0.0000000000000D+00
   273  2.7200000000000D+00  0.0000000000000D+00  0.0000000000000D+00
   274  2.7300000000000D+00  0.0000000000000D+00  0.0000000000000D+00
   275  2.7400000000000D+00  0.0000000000000D+00  0.0000000000000D+00
   276  2.7500000000000D+00  0.0000000000000D+00  0.0000000000000D+00
   277  2.7600000000000D+00  0.0000000000000D+00  0.0000000000000D+00
   278  2.7700000000000D+00  0.0000000000000D+00  0.0000000000000D+00
   279  2.7800000000000D+00  0.0000000000000D+00  0.0000000000000D+00
   280  2.7900000000000D+00  0.0000000000000D+00  0.0000000000000D+00
   281  2.8000000000000D+00  0.0000000000000D+00  0.0000000000000D+00
   282  2.8100000000000D+00  0.0000000000000D+00  0.0000000000000D+00
   283  2.8200000000000D+00  0.0000000000000D+00  0.0000000000000D+00
   284  2.8300000000000D+00  0.0000000000000D+00  0.0000000000000D+00
   285  2.8400000000000D+00  0.0000000000000D+00  0.0000000000000D+00
   286  2.8500000000000D+00  0.0000000000000D+00  0.0000000000000D+00
   287  2.8600000000000D+00  0.0000000000000D+00  0.0000000000000D+00
   288  2.8700000000000D+00  0.0000000000000D+00  0.0000000000000D+00
   289  2.8800000000000D+00  0.0000000000000D+00  0.0000000000000D+00
   290  2.8900000000000D+00  0.0000000000000D+00  0.0000000000000D+00
   291  2.9000000000000D+00  0.0000000000000D+00  0.0000000000000D+00
   292  2.9100000000000D+00  0.0000000000000D+00  0.0000000000000D+00
   293  2.9200000000000D+00  0.0000000000000D+00  0.0000000000000D+00
   294  2.9300000000000D+00  0.0000000000000D+00  0.0000000000000D+00
   295  2.9400000000000D+00  0.0000000000000D+00  0.0000000000000D+00
   296  2.9500000000000D+00  0.0000000000000D+00  0.0000000000000D+00
   297  2.9600000000000D+00  0.0000000000000D+00  0.0000000000000D+00
   298  2.9700000000000D+00  0.0000000000000D+00  0.0000000000000D+00
   299  2.9800000000000D+00  0.0000000000000D+00  0.0000000000000D+00
   300  2.9900000000000D+00  0.0000000000000D+00  0.0000000000000D+00
   301  3.0000000000000D+00  0.0000000000000D+00  0.0000000000000D+00
   302  3.0100000000000D+00  0.0000000000000D+00  0.0000000000000D+00
   303  3.0200000000000D+00  0.0000000000000D+00  0.0000000000000D+00
   304  3.0300000000000D+00  0.0000000000000D+00  0.0000000000000D+00
   305  3.0400000000000D+00  0.0000000000000D+00  0.0000000000000D+00
   306  3.0500000000000D+00  0.0000000000000D+00  0.0000000000000D+00
   307  3.0600000000000D+00  0.0000000000000D+00  0.0000000000000D+00
   308  3.0700000000000D+00  0.0000000000000D+00  0.0000000000000D+00
   309  3.0800000000000D+00  0.0000000000000D+00  0.0000000000000D+00
   310  3.0900000000000D+00  0.0000000000000D+00  0.0000000000000D+00
   311  3.1000000000000D+00  0.0000000000000D+00  0.0000000000000D+00
   312  3.1100000000000D+00  0.0000000000000D+00  0.0000000000000D+00
   313  3.1200000000000D+00  0.0000000000000D+00  0.0000000000000D+00
   314  3.1300000000000D+00  0.0000000000000D+00  0.0000000000000D+00
   315  3.1400000000000D+00  0.0000000000000D+00  0.0000000000000D+00
   316  3.1500000000000D+00  0.0000000000000D+00  0.0000000000000D+00
   317  3.1600000000000D+00  0.0000000000000D+00  0.0000000000000D+00
   318  3.1700000000000D+00  0.0000000000000D+00  0.0000000000000D+00
   319  3.1800000000000D+00  0.0000000000000D+00  0.0000000000000D+00
   320  3.1900000000000D+00  0.0000000000000D+00  0.0000000000000D+00
   321  3.2000000000000D+00  0.0000000000000D+00  0.0000000000000D+00
   322  3.2100000000000D+00  0.0000000000000D+00  0.0000000000000D+00
   323  3.2200000000000D+00  0.0000000000000D+00  0.0000000000000D+00
   324  3.2300000000000D+00  0.0000000000000D+00  0.0000000000000D+00
   325  3.2400000000000D+00  0.0000000000000D+00  0.0000000000000D+00
   326  3.2500000000000D+00  0.0000000000000D+00  0.0000000000000D+00
   327  3.2600000000000D+00  0.0000000000000D+00  0.0000000000000D+00
   328  3.2700000000000D+00  0.0000000000000D+00  0.0000000000000D+00
   329  3.2800000000000D+00  0.0000000000000D+00  0.0000000000000D+00
   330  3.2900000000000D+00  0.0000000000000D+00  0.0000000000000D+00
   331  3.3000000000000D+00  0.0000000000000D+00  0.0000000000000D+00
   332  3.3100000000000D+00  0.0000000000000D+00  0.0000000000000D+00
   333  3.3200000000000D+00  0.0000000000000D+00  0.0000000000000D+00
   334  3.3300000000000D+00  0.0000000000000D+00  0.0000000000000D+00
   335  3.3400000000000D+00  0.0000000000000D+00  0.0000000000000D+00
   336  3.3500000000000D+00  0.0000000000000D+00  0.0000000000000D+00
   337  3.3600000000000D+00  0.0000000000000D+00  0.0000000000000D+00
   338  3.3700000000000D+00  0.0000000000000D+00  0.0000000000000D+00
   339  3.3800000000000D+00  0.0000000000000D+00  0.0000000000000D+00
   340  3.3900000000000D+00  0.0000000000000D+00  0.0000000000000D+00
   341  3.4000000000000D+00  0.0000000000000D+00  0.0000000000000D+00
   342  3.4100000000000D+00  0.0000000000000D+00  0.0000000000000D+00
   343  3.4200000000000D+00  0.0000000000000D+00  0.0000000000000D+00
   344  3.4300000000000D+00  0.0000000000000D+00  0.0000000000000D+00
   345  3.4400000000000D+00  0.0000000000000D+00  0.0000000000000D+00
   346  3.4500000000000D+00  0.0000000000000D+00  0.0000000000000D+00
   347  3.4600000000000D+00  0.0000000000000D+00  0.0000000000000D+00
   348  3.4700000000000D+00  0.0000000000000D+00  0.0000000000000D+00
   349  3.4800000000000D+00  0.0000000000000D+00  0.0000000000000D+00
   350  3.4900000000000D+00  0.0000000000000D+00  0.0000000000000D+00
   351  3.5000000000000D+00  0.0000000000000D+00  0.0000000000000D+00
   352  3.5100000000000D+00  0.0000000000000D+00  0.0000000000000D+00
   353  3.5200000000000D+00  0.0000000000000D+00  0.0000000000000D+00
   354  3.5300000000000D+00  0.0000000000000D+00  0.0000000000000D+00
   355  3.5400000000000D+00  0.0000000000000D+00  0.0000000000000D+00
   356  3.5500000000000D+00  0.0000000000000D+00  0.0000000000000D+00
   357  3.5600000000000D+00  0.0000000000000D+00  0.0000000000000D+00
   358  3.5700000000000D+00  0.0000000000000D+00  0.0000000000000D+00
   359  3.5800000000000D+00  0.0000000000000D+00  0.0000000000000D+00
   360  3.5900000000000D+00  0.0000000000000D+00  0.0000000000000D+00
   361  3.6000000000000D+00  0.0000000000000D+00  0.0000000000000D+00
   362  3.6100000000000D+00  0.0000000000000D+00  0.0000000000000D+00
   363  3.6200000000000D+00  0.0000000000000D+00  0.0000000000000D+00
   364  3.6300000000000D+00  0.0000000000000D+00  0.0000000000000D+00
   365  3.6400000000000D+00  0.0000000000000D+00  0.0000000000000D+00
   366  3.6500000000000D+00  0.0000000000000D+00  0.0000000000000D+00
   367  3.6600000000000D+00  0.0000000000000D+00  0.0000000000000D+00
   368  3.6700000000000D+00  0.0000000000000D+00  0.0000000000000D+00
   369  3.6800000000000D+00  0.0000000000000D+00  0.0000000000000D+00
   370  3.6900000000000D+00  0.0000000000000D+00  0.0000000000000D+00
   371  3.7000000000000D+00  0.0000000000000D+00  0.0000000000000D+00
   372  3.7100000000000D+00  0.0000000000000D+00  0.0000000000000D+00
   373  3.7200000000000D+00  0.0000000000000D+00  0.0000000000000D+00
   374  3.7300000000000D+00  0.0000000000000D+00  0.0000000000000D+00
   375  3.7400000000000D+00  0.0000000000000D+00  0.0000000000000D+00
   376  3.7500000000000D+00  0.0000000000000D+00  0.0000000000000D+00
   377  3.7600000000000D+00  0.0000000000000D+00  0.0000000000000D+00
   378  3.7700000000000D+00  0.0000000000000D+00  0.0000000000000D+00
   379  3.7800000000000D+00  0.0000000000000D+00  0.0000000000000D+00
   380  3.7900000000000D+00  0.0000000000000D+00  0.0000000000000D+00
   381  3.8000000000000D+00  0.0000000000000D+00  0.0000000000000D+00
   382  3.8100000000000D+00  0.0000000000000D+00  0.0000000000000D+00
   383  3.8200000000000D+00  0.0000000000000D+00  0.0000000000000D+00
   384  3.8300000000000D+00  0.0000000000000D+00  0.0000000000000D+00
   385  3.8400000000000D+00  0.0000000000000D+00  0.0000000000000D+00
   386  3.8500000000000D+00  0.0000000000000D+00  0.0000000000000D+00
   387  3.8600000000000D+00  0.0000000000000D+00  0.0000000000000D+00
   388  3.8700000000000D+00  0.0000000000000D+00  0.0000000000000D+00
   389  3.8800000000000D+00  0.0000000000000D+00  0.0000000000000D+00
   390  3.8900000000000D+00  0.0000000000000D+00  0.0000000000000D+00
   391  3.9000000000000D+00  0.0000000000000D+00  0.0000000000000D+00
   392  3.9100000000000D+00  0.0000000000000D+00  0.0000000000000D+00
   393  3.9200000000000D+00  0.0000000000000D+00  0.0000000000000D+00
   394  3.9300000000000D+00  0.0000000000000D+00  0.0000000000000D+00
   395  3.9400000000000D+00  0.0000000000000D+00  0.0000000000000D+00
   396  3.9500000000000D+00  0.0000000000000D+00  0.0000000000000D+00
   397  3.9600000000000D+00  0.0000000000000D+00  0.0000000000000D+00
   398  3.9700000000000D+00  0.0000000000000D+00  0.0000000000000D+00
   399  3.9800000000000D+00  0.0000000000000D+00  0.0000000000000D+00
   400  3.9900000000000D+00  0.0000000000000D+00  0.0000000000000D+00
   401  4.0000000000000D+00  0.0000000000000D+00  0.0000000000000D+00
   402  4.0100000000000D+00  0.0000000000000D+00  0.0000000000000D+00
   403  4.0200000000000D+00  0.0000000000000D+00  0.0000000000000D+00
   404  4.0300000000000D+00  0.0000000000000D+00  0.0000000000000D+00
   405  4.0400000000000D+00  0.0000000000000D+00  0.0000000000000D+00
   406  4.0500000000000D+00  0.0000000000000D+00  0.0000000000000D+00
   407  4.0600000000000D+00  0.0000000000000D+00  0.0000000000000D+00
   408  4.0700000000000D+00  0.0000000000000D+00  0.0000000000000D+00
   409  4.0800000000000D+00  0.0000000000000D+00  0.0000000000000D+00
   410  4.0900000000000D+00  0.0000000000000D+00  0.0000000000000D+00
   411  4.1000000000000D+00  0.0000000000000D+00  0.0000000000000D+00
   412  4.1100000000000D+00  0.0000000000000D+00  0.0000000000000D+00
   413  4.1200000000000D+00  0.0000000000000D+00  0.0000000000000D+00
   414  4.1300000000000D+00  0.0000000000000D+00  0.0000000000000D+00
   415  4.1400000000000D+00  0.0000000000000D+00  0.0000000000000D+00
   416  4.1500000000000D+00  0.0000000000000D+00  0.0000000000000D+00
   417  4.1600000000000D+00  0.0000000000000D+00  0.0000000000000D+00
   418  4.1700000000000D+00  0.0000000000000D+00  0.0000000000000D+00
   419  4.1800000000000D+00  0.0000000000000D+00  0.0000000000000D+00
   420  4.1900000000000D+00  0.0000000000000D+00  0.0000000000000D+00
   421  4.2000000000000D+00  0.0000000000000D+00  0.0000000000000D+00
   422  4.2100000000000D+00  0.0000000000000D+00  0.0000000000000D+00