Al    ONCVPSP-3.3.0  r_core=   1.40948   1.60710   1.81071
     13.0000     11.0000      220117    zatom,zion,pspd
     8      11   2     4   600     0    pspcod,pspxc,lmax,lloc,mmax,r2well
  5.99000000  0.00000000  0.00000000    rchrg fchrg qchrg
     2     2     2     0     0    nproj
     1     1           extension_switch
   0                         1.9407131550830D+00 -8.8659856760607D-01
     1  0.0000000000000D+00 -2.6254054485975D-10  3.4132513482277D-10
     2  1.0000000000000D-02  1.1562830358209D-01  2.9275252613996D-02
     3  2.0000000000000D-02  2.3070774116933D-01  5.8615427994521D-02
     4  3.0000000000000D-02  3.4469228053048D-01  8.8084587784481D-02
     5  4.0000000000000D-02  4.5704154219893D-01  1.1774507978075D-01
     6  5.0000000000000D-02  5.6722358901450D-01  1.4765670192637D-01
     7  6.0000000000000D-02  6.7471767164063D-01  1.7787589115611D-01
     8  7.0000000000000D-02  7.7901691568872D-01  2.0845494497464D-01
     9  8.0000000000000D-02  8.7963093634379D-01  2.3944128330520D-01
    10  9.0000000000000D-02  9.7608836671259D-01  2.7087675772730D-01
    11  1.0000000000000D-01  1.0679392865076D+00  3.0279701472916D-01
    12  1.1000000000000D-01  1.1547575381354D+00  3.3523091904064D-01
    13  1.2000000000000D-01  1.2361429177778D+00  3.6820004249019D-01
    14  1.3000000000000D-01  1.3117232296339D+00  4.0171822315409D-01
    15  1.4000000000000D-01  1.3811561921345D+00  4.3579119884305D-01
    16  1.5000000000000D-01  1.4441311856432D+00  4.7041631821041D-01
    17  1.6000000000000D-01  1.5003708319163D+00  5.0558233197519D-01
    18  1.7000000000000D-01  1.5496323964127D+00  5.4126926594083D-01
    19  1.8000000000000D-01  1.5917090054149D+00  5.7744837666653D-01
    20  1.9000000000000D-01  1.6264306708434D+00  6.1408218982116D-01
    21  2.0000000000000D-01  1.6536651166204D+00  6.5112462042913D-01
    22  2.1000000000000D-01  1.6733184014510D+00  6.8852117341237D-01
    23  2.2000000000000D-01  1.6853353339524D+00  7.2620922205202D-01
    24  2.3000000000000D-01  1.6896996771535D+00  7.6411836124497D-01
    25  2.4000000000000D-01  1.6864341405179D+00  8.0217083172349D-01
    26  2.5000000000000D-01  1.6756001587990D+00  8.4028201074690D-01
    27  2.6000000000000D-01  1.6572974582148D+00  8.7836096417108D-01
    28  2.7000000000000D-01  1.6316634116251D+00  9.1631105425893D-01
    29  2.8000000000000D-01  1.5988721856028D+00  9.5403059712006D-01
    30  2.9000000000000D-01  1.5591336834952D+00  9.9141356326411D-01
    31  3.0000000000000D-01  1.5126922897839D+00  1.0283503144233D+00
    32  3.1000000000000D-01  1.4598254222436D+00  1.0647283695499D+00
    33  3.2000000000000D-01  1.4008418995781D+00  1.1004331927222D+00
    34  3.3000000000000D-01  1.3360801333636D+00  1.1353489956039D+00
    35  3.4000000000000D-01  1.2659061542457D+00  1.1693595470900D+00
    36  3.5000000000000D-01  1.1907114834087D+00  1.2023489828439D+00
    37  3.6000000000000D-01  1.1109108613606D+00  1.2342026075732D+00
    38  3.7000000000000D-01  1.0269398470381D+00  1.2648076831164D+00
    39  3.8000000000000D-01  9.3925230113399D-01  1.2940541956992D+00
    40  3.9000000000000D-01  8.4831776836706D-01  1.3218355960775D+00
    41  4.0000000000000D-01  7.5461877415330D-01  1.3480495066981D+00
    42  4.1000000000000D-01  6.5864805178252D-01  1.3725983904788D+00
    43  4.2000000000000D-01  5.6090571675318D-01  1.3953901763239D+00
    44  4.3000000000000D-01  4.6189640536373D-01  1.4163388370492D+00
    45  4.4000000000000D-01  3.6212639499331D-01  1.4353649159755D+00
    46  4.5000000000000D-01  2.6210072372613D-01  1.4523959990642D+00
    47  4.6000000000000D-01  1.6232032707581D-01  1.4673671300932D+00
    48  4.7000000000000D-01  6.3279209546762D-02  1.4802211670096D+00
    49  4.8000000000000D-01 -3.4538331374198D-02  1.4909090782295D+00
    50  4.9000000000000D-01 -1.3066041147105D-01  1.4993901782807D+00
    51  5.0000000000000D-01 -2.2463017936593D-01  1.5056323027985D+00
    52  5.1000000000000D-01 -3.1600833298806D-01  1.5096119234688D+00
    53  5.2000000000000D-01 -4.0437551717202D-01  1.5113142040745D+00
    54  5.3000000000000D-01 -4.8933458737164D-01  1.5107329993193D+00
    55  5.4000000000000D-01 -5.7051272534831D-01  1.5078707985866D+00
    56  5.5000000000000D-01 -6.4756339367446D-01  1.5027386172230D+00
    57  5.6000000000000D-01 -7.2016811697240D-01  1.4953558383206D+00
    58  5.7000000000000D-01 -7.8803807898666D-01  1.4857500083021D+00
    59  5.8000000000000D-01 -8.5091552584305D-01  1.4739565898848D+00
    60  5.9000000000000D-01 -9.0857496718374D-01  1.4600186762220D+00
    61  6.0000000000000D-01 -9.6082416825700D-01  1.4439866701722D+00
    62  6.1000000000000D-01 -1.0075049274923D+00  1.4259179327553D+00
    63  6.2000000000000D-01 -1.0484936355653D+00  1.4058764048972D+00
    64  6.3000000000000D-01 -1.0837016134739D+00  1.3839322065573D+00
    65  6.4000000000000D-01 -1.1130752286577D+00  1.3601612172768D+00
    66  6.5000000000000D-01 -1.1365957897116D+00  1.3346446420770D+00
    67  6.6000000000000D-01 -1.1542792217429D+00  1.3074685664912D+00
    68  6.7000000000000D-01 -1.1661755258856D+00  1.2787235043250D+00
    69  6.8000000000000D-01 -1.1723680279085D+00  1.2485039415230D+00
    70  6.9000000000000D-01 -1.1729724222175D+00  1.2169078792706D+00
    71  7.0000000000000D-01 -1.1681356188423D+00  1.1840363791975D+00
    72  7.1000000000000D-01 -1.1580344022042D+00  1.1499931132632D+00
    73  7.2000000000000D-01 -1.1428739115740D+00  1.1148839206191D+00
    74  7.3000000000000D-01 -1.1228859541344D+00  1.0788163734466D+00
    75  7.4000000000000D-01 -1.0983271624496D+00  1.0418993534848D+00
    76  7.5000000000000D-01 -1.0694770089119D+00  1.0042426406795D+00
    77  7.6000000000000D-01 -1.0366356903685D+00  9.6595651512602D-01
    78  7.7000000000000D-01 -1.0001218966332D+00  9.2715137322761D-01
    79  7.8000000000000D-01 -9.6027047694568D-01  8.8793735877694D-01
    80  7.9000000000000D-01 -9.1743001866066D-01  8.4842400947069D-01
    81  8.0000000000000D-01 -8.7196035252249D-01  8.0871991920744D-01
    82  8.1000000000000D-01 -8.2422999881752D-01  7.6893241638869D-01
    83  8.2000000000000D-01 -7.7461356849064D-01  7.2916725834733D-01
    84  8.3000000000000D-01 -7.2348913297509D-01  6.8952834196751D-01
    85  8.4000000000000D-01 -6.7123557601817D-01  6.5011743053353D-01
    86  8.5000000000000D-01 -6.1822994019840D-01  6.1103389685318D-01
    87  8.6000000000000D-01 -5.6484478013139D-01  5.7237448274001D-01
    88  8.7000000000000D-01 -5.1144553356135D-01  5.3423307500774D-01
    89  8.8000000000000D-01 -4.5838792064492D-01  4.9670049822487D-01
    90  8.9000000000000D-01 -4.0601538076578D-01  4.5986432459434D-01
    91  9.0000000000000D-01 -3.5465655518571D-01  4.2380870145840D-01
    92  9.1000000000000D-01 -3.0462282275455D-01  3.8861419707682D-01
    93  9.2000000000000D-01 -2.5620589478096D-01  3.5435766548290D-01
    94  9.3000000000000D-01 -2.0967547402496D-01  3.2111213138072D-01
    95  9.4000000000000D-01 -1.6527698162399D-01  2.8894669620318D-01
    96  9.5000000000000D-01 -1.2322935462484D-01  2.5792646659807D-01
    97  9.6000000000000D-01 -8.3722915667342D-02  2.2811250674413D-01
    98  9.7000000000000D-01 -4.6917315297442D-02  1.9956181601258D-01
    99  9.8000000000000D-01 -1.2939541851093D-02  1.7232733511362D-01
   100  9.9000000000000D-01  1.8117999135627D-02  1.4645798035277D-01
   101  1.0000000000000D+00  4.6199156217650D-02  1.2199865126966D-01
   102  1.0100000000000D+00  7.1286482532294D-02  9.8990547689530D-02
   103  1.0200000000000D+00  9.3400492082519D-02  7.7470459249182D-02
   104  1.0300000000000D+00  1.1259007620448D-01  5.7467268599384D-02
   105  1.0400000000000D+00  1.2892207466630D-01  3.8998925516215D-02
   106  1.0500000000000D+00  1.4247900204583D-01  2.2072547071072D-02
   107  1.0600000000000D+00  1.5335828875930D-01  6.6851038845191D-03
   108  1.0700000000000D+00  1.6167101531299D-01 -7.1760778674542D-03
   109  1.0800000000000D+00  1.6754075234201D-01 -1.9532757027966D-02
   110  1.0900000000000D+00  1.7110241319757D-01 -3.0415202534720D-02
   111  1.1000000000000D+00  1.7250111226865D-01 -3.9861606066279D-02
   112  1.1100000000000D+00  1.7189103966934D-01 -4.7917479859631D-02
   113  1.1200000000000D+00  1.6943435533398D-01 -5.4635039995976D-02
   114  1.1300000000000D+00  1.6530010233811D-01 -6.0072576336860D-02
   115  1.1400000000000D+00  1.5966313680174D-01 -6.4293810950934D-02
   116  1.1500000000000D+00  1.5270306656757D-01 -6.7367248051592D-02
   117  1.1600000000000D+00  1.4460318712834D-01 -6.9365519207129D-02
   118  1.1700000000000D+00  1.3554939819699D-01 -7.0364728540343D-02
   119  1.1800000000000D+00  1.2572908054819D-01 -7.0443803329310D-02
   120  1.1900000000000D+00  1.1532990639543D-01 -6.9683856397070D-02
   121  1.2000000000000D+00  1.0453855398353D-01 -6.8167566930775D-02
   122  1.2100000000000D+00  9.3539294532713D-02 -6.5978586674930D-02
   123  1.2200000000000D+00  8.2512416538945D-02 -6.3200978641607D-02
   124  1.2300000000000D+00  7.1632455225970D-02 -5.9918694677855D-02
   125  1.2400000000000D+00  6.1066200517523D-02 -5.6215097164167D-02
   126  1.2500000000000D+00  5.0970457599107D-02 -5.2172529668395D-02
   127  1.2600000000000D+00  4.1489554235182D-02 -4.7871937888441D-02
   128  1.2700000000000D+00  3.2752606826310D-02 -4.3392539741509D-02
   129  1.2800000000000D+00  2.4870559392728D-02 -3.8811542655307D-02
   130  1.2900000000000D+00  1.7933064305275D-02 -3.4203898438041D-02
   131  1.3000000000000D+00  1.2005288172756D-02 -2.9642084890778D-02
   132  1.3100000000000D+00  7.1247411777031D-03 -2.5195900491321D-02
   133  1.3200000000000D+00  3.2983054681679D-03 -2.0932250254487D-02
   134  1.3300000000000D+00  4.9961792389223D-04 -1.6914904220923D-02
   135  1.3400000000000D+00 -1.3329784395321D-03 -1.3204202317617D-02
   136  1.3500000000000D+00 -2.2977023994488D-03 -9.8566850076706D-03
   137  1.3600000000000D+00 -2.5296458753294D-03 -6.9246491239978D-03
   138  1.3700000000000D+00 -2.2017644831044D-03 -4.4571079566772D-03
   139  1.3800000000000D+00 -1.5070523218054D-03 -2.4851442869734D-03
   140  1.3900000000000D+00 -6.9689063217367D-04 -1.0607158945046D-03
   141  1.4000000000000D+00 -5.0433168571533D-05 -2.4176900935046D-04
   142  1.4100000000000D+00  2.3122299871206D-04  6.2246647497147D-05
   143  1.4200000000000D+00  1.2271470776921D-04  5.3570920325472D-05
   144  1.4300000000000D+00 -2.8217674071048D-05 -1.3908081772392D-05
   145  1.4400000000000D+00 -1.9387630225431D-05 -9.9571041559937D-06
   146  1.4500000000000D+00  7.2386088709178D-06  3.5455179336517D-06
   147  1.4600000000000D+00  1.0197145268769D-06  5.1175300922654D-07
   148  1.4700000000000D+00 -6.4068900269137D-07 -1.5784886528710D-07
   149  1.4800000000000D+00  0.0000000000000D+00  0.0000000000000D+00
   150  1.4900000000000D+00  0.0000000000000D+00  0.0000000000000D+00
   151  1.5000000000000D+00  0.0000000000000D+00  0.0000000000000D+00
   152  1.5100000000000D+00  0.0000000000000D+00  0.0000000000000D+00
   153  1.5200000000000D+00  0.0000000000000D+00  0.0000000000000D+00
   154  1.5300000000000D+00  0.0000000000000D+00  0.0000000000000D+00
   155  1.5400000000000D+00  0.0000000000000D+00  0.0000000000000D+00
   156  1.5500000000000D+00  0.0000000000000D+00  0.0000000000000D+00
   157  1.5600000000000D+00  0.0000000000000D+00  0.0000000000000D+00
   158  1.5700000000000D+00  0.0000000000000D+00  0.0000000000000D+00
   159  1.5800000000000D+00  0.0000000000000D+00  0.0000000000000D+00
   160  1.5900000000000D+00  0.0000000000000D+00  0.0000000000000D+00
   161  1.6000000000000D+00  0.0000000000000D+00  0.0000000000000D+00
   162  1.6100000000000D+00  0.0000000000000D+00  0.0000000000000D+00
   163  1.6200000000000D+00  0.0000000000000D+00  0.0000000000000D+00
   164  1.6300000000000D+00  0.0000000000000D+00  0.0000000000000D+00
   165  1.6400000000000D+00  0.0000000000000D+00  0.0000000000000D+00
   166  1.6500000000000D+00  0.0000000000000D+00  0.0000000000000D+00
   167  1.6600000000000D+00  0.0000000000000D+00  0.0000000000000D+00
   168  1.6700000000000D+00  0.0000000000000D+00  0.0000000000000D+00
   169  1.6800000000000D+00  0.0000000000000D+00  0.0000000000000D+00
   170  1.6900000000000D+00  0.0000000000000D+00  0.0000000000000D+00
   171  1.7000000000000D+00  0.0000000000000D+00  0.0000000000000D+00
   172  1.7100000000000D+00  0.0000000000000D+00  0.0000000000000D+00
   173  1.7200000000000D+00  0.0000000000000D+00  0.0000000000000D+00
   174  1.7300000000000D+00  0.0000000000000D+00  0.0000000000000D+00
   175  1.7400000000000D+00  0.0000000000000D+00  0.0000000000000D+00
   176  1.7500000000000D+00  0.0000000000000D+00  0.0000000000000D+00
   177  1.7600000000000D+00  0.0000000000000D+00  0.0000000000000D+00
   178  1.7700000000000D+00  0.0000000000000D+00  0.0000000000000D+00
   179  1.7800000000000D+00  0.0000000000000D+00  0.0000000000000D+00
   180  1.7900000000000D+00  0.0000000000000D+00  0.0000000000000D+00
   181  1.8000000000000D+00  0.0000000000000D+00  0.0000000000000D+00
   182  1.8100000000000D+00  0.0000000000000D+00  0.0000000000000D+00
   183  1.8200000000000D+00  0.0000000000000D+00  0.0000000000000D+00
   184  1.8300000000000D+00  0.0000000000000D+00  0.0000000000000D+00
   185  1.8400000000000D+00  0.0000000000000D+00  0.0000000000000D+00
   186  1.8500000000000D+00  0.0000000000000D+00  0.0000000000000D+00
   187  1.8600000000000D+00  0.0000000000000D+00  0.0000000000000D+00
   188  1.8700000000000D+00  0.0000000000000D+00  0.0000000000000D+00
   189  1.8800000000000D+00  0.0000000000000D+00  0.0000000000000D+00
   190  1.8900000000000D+00  0.0000000000000D+00  0.0000000000000D+00
   191  1.9000000000000D+00  0.0000000000000D+00  0.0000000000000D+00
   192  1.9100000000000D+00  0.0000000000000D+00  0.0000000000000D+00
   193  1.9200000000000D+00  0.0000000000000D+00  0.0000000000000D+00
   194  1.9300000000000D+00  0.0000000000000D+00  0.0000000000000D+00
   195  1.9400000000000D+00  0.0000000000000D+00  0.0000000000000D+00
   196  1.9500000000000D+00  0.0000000000000D+00  0.0000000000000D+00
   197  1.9600000000000D+00  0.0000000000000D+00  0.0000000000000D+00
   198  1.9700000000000D+00  0.0000000000000D+00  0.0000000000000D+00
   199  1.9800000000000D+00  0.0000000000000D+00  0.0000000000000D+00
   200  1.9900000000000D+00  0.0000000000000D+00  0.0000000000000D+00
   201  2.0000000000000D+00  0.0000000000000D+00  0.0000000000000D+00
   202  2.0100000000000D+00  0.0000000000000D+00  0.0000000000000D+00
   203  2.0200000000000D+00  0.0000000000000D+00  0.0000000000000D+00
   204  2.0300000000000D+00  0.0000000000000D+00  0.0000000000000D+00
   205  2.0400000000000D+00  0.0000000000000D+00  0.0000000000000D+00
   206  2.0500000000000D+00  0.0000000000000D+00  0.0000000000000D+00
   207  2.0600000000000D+00  0.0000000000000D+00  0.0000000000000D+00
   208  2.0700000000000D+00  0.0000000000000D+00  0.0000000000000D+00
   209  2.0800000000000D+00  0.0000000000000D+00  0.0000000000000D+00
   210  2.0900000000000D+00  0.0000000000000D+00  0.0000000000000D+00
   211  2.1000000000000D+00  0.0000000000000D+00  0.0000000000000D+00
   212  2.1100000000000D+00  0.0000000000000D+00  0.0000000000000D+00
   213  2.1200000000000D+00  0.0000000000000D+00  0.0000000000000D+00
   214  2.1300000000000D+00  0.0000000000000D+00  0.0000000000000D+00
   215  2.1400000000000D+00  0.0000000000000D+00  0.0000000000000D+00
   216  2.1500000000000D+00  0.0000000000000D+00  0.0000000000000D+00
   217  2.1600000000000D+00  0.0000000000000D+00  0.0000000000000D+00
   218  2.1700000000000D+00  0.0000000000000D+00  0.0000000000000D+00
   219  2.1800000000000D+00  0.0000000000000D+00  0.0000000000000D+00
   220  2.1900000000000D+00  0.0000000000000D+00  0.0000000000000D+00
   221  2.2000000000000D+00  0.0000000000000D+00  0.0000000000000D+00
   222  2.2100000000000D+00  0.0000000000000D+00  0.0000000000000D+00
   223  2.2200000000000D+00  0.0000000000000D+00  0.0000000000000D+00
   224  2.2300000000000D+00  0.0000000000000D+00  0.0000000000000D+00
   225  2.2400000000000D+00  0.0000000000000D+00  0.0000000000000D+00
   226  2.2500000000000D+00  0.0000000000000D+00  0.0000000000000D+00
   227  2.2600000000000D+00  0.0000000000000D+00  0.0000000000000D+00
   228  2.2700000000000D+00  0.0000000000000D+00  0.0000000000000D+00
   229  2.2800000000000D+00  0.0000000000000D+00  0.0000000000000D+00
   230  2.2900000000000D+00  0.0000000000000D+00  0.0000000000000D+00
   231  2.3000000000000D+00  0.0000000000000D+00  0.0000000000000D+00
   232  2.3100000000000D+00  0.0000000000000D+00  0.0000000000000D+00
   233  2.3200000000000D+00  0.0000000000000D+00  0.0000000000000D+00
   234  2.3300000000000D+00  0.0000000000000D+00  0.0000000000000D+00
   235  2.3400000000000D+00  0.0000000000000D+00  0.0000000000000D+00
   236  2.3500000000000D+00  0.0000000000000D+00  0.0000000000000D+00
   237  2.3600000000000D+00  0.0000000000000D+00  0.0000000000000D+00
   238  2.3700000000000D+00  0.0000000000000D+00  0.0000000000000D+00
   239  2.3800000000000D+00  0.0000000000000D+00  0.0000000000000D+00
   240  2.3900000000000D+00  0.0000000000000D+00  0.0000000000000D+00
   241  2.4000000000000D+00  0.0000000000000D+00  0.0000000000000D+00
   242  2.4100000000000D+00  0.0000000000000D+00  0.0000000000000D+00
   243  2.4200000000000D+00  0.0000000000000D+00  0.0000000000000D+00
   244  2.4300000000000D+00  0.0000000000000D+00  0.0000000000000D+00
   245  2.4400000000000D+00  0.0000000000000D+00  0.0000000000000D+00
   246  2.4500000000000D+00  0.0000000000000D+00  0.0000000000000D+00
   247  2.4600000000000D+00  0.0000000000000D+00  0.0000000000000D+00
   248  2.4700000000000D+00  0.0000000000000D+00  0.0000000000000D+00
   249  2.4800000000000D+00  0.0000000000000D+00  0.0000000000000D+00
   250  2.4900000000000D+00  0.0000000000000D+00  0.0000000000000D+00
   251  2.5000000000000D+00  0.0000000000000D+00  0.0000000000000D+00
   252  2.5100000000000D+00  0.0000000000000D+00  0.0000000000000D+00
   253  2.5200000000000D+00  0.0000000000000D+00  0.0000000000000D+00
   254  2.5300000000000D+00  0.0000000000000D+00  0.0000000000000D+00
   255  2.5400000000000D+00  0.0000000000000D+00  0.0000000000000D+00
   256  2.5500000000000D+00  0.0000000000000D+00  0.0000000000000D+00
   257  2.5600000000000D+00  0.0000000000000D+00  0.0000000000000D+00
   258  2.5700000000000D+00  0.0000000000000D+00  0.0000000000000D+00
   259  2.5800000000000D+00  0.0000000000000D+00  0.0000000000000D+00
   260  2.5900000000000D+00  0.0000000000000D+00  0.0000000000000D+00
   261  2.6000000000000D+00  0.0000000000000D+00  0.0000000000000D+00
   262  2.6100000000000D+00  0.0000000000000D+00  0.0000000000000D+00
   263  2.6200000000000D+00  0.0000000000000D+00  0.0000000000000D+00
   264  2.6300000000000D+00  0.0000000000000D+00  0.0000000000000D+00
   265  2.6400000000000D+00  0.0000000000000D+00  0.0000000000000D+00
   266  2.6500000000000D+00  0.0000000000000D+00  0.0000000000000D+00
   267  2.6600000000000D+00  0.0000000000000D+00  0.0000000000000D+00
   268  2.6700000000000D+00  0.0000000000000D+00  0.0000000000000D+00
   269  2.6800000000000D+00  0.0000000000000D+00  0.0000000000000D+00
   270  2.6900000000000D+00  0.0000000000000D+00  0.0000000000000D+00
   271  2.7000000000000D+00  0.0000000000000D+00  0.0000000000000D+00
   272  2.7100000000000D+00  0.0000000000000D+00  0.0000000000000D+00
   273  2.7200000000000D+00  0.0000000000000D+00  0.0000000000000D+00
   274  2.7300000000000D+00  0.0000000000000D+00  0.0000000000000D+00
   275  2.7400000000000D+00  0.0000000000000D+00  0.0000000000000D+00
   276  2.7500000000000D+00  0.0000000000000D+00  0.0000000000000D+00
   277  2.7600000000000D+00  0.0000000000000D+00  0.0000000000000D+00
   278  2.7700000000000D+00  0.0000000000000D+00  0.0000000000000D+00
   279  2.7800000000000D+00  0.0000000000000D+00  0.0000000000000D+00
   280  2.7900000000000D+00  0.0000000000000D+00  0.0000000000000D+00
   281  2.8000000000000D+00  0.0000000000000D+00  0.0000000000000D+00
   282  2.8100000000000D+00  0.0000000000000D+00  0.0000000000000D+00
   283  2.8200000000000D+00  0.0000000000000D+00  0.0000000000000D+00
   284  2.8300000000000D+00  0.0000000000000D+00  0.0000000000000D+00
   285  2.8400000000000D+00  0.0000000000000D+00  0.0000000000000D+00
   286  2.8500000000000D+00  0.0000000000000D+00  0.0000000000000D+00
   287  2.8600000000000D+00  0.0000000000000D+00  0.0000000000000D+00
   288  2.8700000000000D+00  0.0000000000000D+00  0.0000000000000D+00
   289  2.8800000000000D+00  0.0000000000000D+00  0.0000000000000D+00
   290  2.8900000000000D+00  0.0000000000000D+00  0.0000000000000D+00
   291  2.9000000000000D+00  0.0000000000000D+00  0.0000000000000D+00
   292  2.9100000000000D+00  0.0000000000000D+00  0.0000000000000D+00
   293  2.9200000000000D+00  0.0000000000000D+00  0.0000000000000D+00
   294  2.9300000000000D+00  0.0000000000000D+00  0.0000000000000D+00
   295  2.9400000000000D+00  0.0000000000000D+00  0.0000000000000D+00
   296  2.9500000000000D+00  0.0000000000000D+00  0.0000000000000D+00
   297  2.9600000000000D+00  0.0000000000000D+00  0.0000000000000D+00
   298  2.9700000000000D+00  0.0000000000000D+00  0.0000000000000D+00
   299  2.9800000000000D+00  0.0000000000000D+00  0.0000000000000D+00
   300  2.9900000000000D+00  0.0000000000000D+00  0.0000000000000D+00
   301  3.0000000000000D+00  0.0000000000000D+00  0.0000000000000D+00
   302  3.0100000000000D+00  0.0000000000000D+00  0.0000000000000D+00
   303  3.0200000000000D+00  0.0000000000000D+00  0.0000000000000D+00
   304  3.0300000000000D+00  0.0000000000000D+00  0.0000000000000D+00
   305  3.0400000000000D+00  0.0000000000000D+00  0.0000000000000D+00
   306  3.0500000000000D+00  0.0000000000000D+00  0.0000000000000D+00
   307  3.0600000000000D+00  0.0000000000000D+00  0.0000000000000D+00
   308  3.0700000000000D+00  0.0000000000000D+00  0.0000000000000D+00
   309  3.0800000000000D+00  0.0000000000000D+00  0.0000000000000D+00
   310  3.0900000000000D+00  0.0000000000000D+00  0.0000000000000D+00
   311  3.1000000000000D+00  0.0000000000000D+00  0.0000000000000D+00
   312  3.1100000000000D+00  0.0000000000000D+00  0.0000000000000D+00
   313  3.1200000000000D+00  0.0000000000000D+00  0.0000000000000D+00
   314  3.1300000000000D+00  0.0000000000000D+00  0.0000000000000D+00
   315  3.1400000000000D+00  0.0000000000000D+00  0.0000000000000D+00
   316  3.1500000000000D+00  0.0000000000000D+00  0.0000000000000D+00
   317  3.1600000000000D+00  0.0000000000000D+00  0.0000000000000D+00
   318  3.1700000000000D+00  0.0000000000000D+00  0.0000000000000D+00
   319  3.1800000000000D+00  0.0000000000000D+00  0.0000000000000D+00
   320  3.1900000000000D+00  0.0000000000000D+00  0.0000000000000D+00
   321  3.2000000000000D+00  0.0000000000000D+00  0.0000000000000D+00
   322  3.2100000000000D+00  0.0000000000000D+00  0.0000000000000D+00
   323  3.2200000000000D+00  0.0000000000000D+00  0.0000000000000D+00
   324  3.2300000000000D+00  0.0000000000000D+00  0.0000000000000D+00
   325  3.2400000000000D+00  0.0000000000000D+00  0.0000000000000D+00
   326  3.2500000000000D+00  0.0000000000000D+00  0.0000000000000D+00
   327  3.2600000000000D+00  0.0000000000000D+00  0.0000000000000D+00
   328  3.2700000000000D+00  0.0000000000000D+00  0.0000000000000D+00
   329  3.2800000000000D+00  0.0000000000000D+00  0.0000000000000D+00
   330  3.2900000000000D+00  0.0000000000000D+00  0.0000000000000D+00
   331  3.3000000000000D+00  0.0000000000000D+00  0.0000000000000D+00
   332  3.3100000000000D+00  0.0000000000000D+00  0.0000000000000D+00
   333  3.3200000000000D+00  0.0000000000000D+00  0.0000000000000D+00
   334  3.3300000000000D+00  0.0000000000000D+00  0.0000000000000D+00
   335  3.3400000000000D+00  0.0000000000000D+00  0.0000000000000D+00
   336  3.3500000000000D+00  0.0000000000000D+00  0.0000000000000D+00
   337  3.3600000000000D+00  0.0000000000000D+00  0.0000000000000D+00
   338  3.3700000000000D+00  0.0000000000000D+00  0.0000000000000D+00
   339  3.3800000000000D+00  0.0000000000000D+00  0.0000000000000D+00
   340  3.3900000000000D+00  0.0000000000000D+00  0.0000000000000D+00
   341  3.4000000000000D+00  0.0000000000000D+00  0.0000000000000D+00
   342  3.4100000000000D+00  0.0000000000000D+00  0.0000000000000D+00
   343  3.4200000000000D+00  0.0000000000000D+00  0.0000000000000D+00
   344  3.4300000000000D+00  0.0000000000000D+00  0.0000000000000D+00
   345  3.4400000000000D+00  0.0000000000000D+00  0.0000000000000D+00
   346  3.4500000000000D+00  0.0000000000000D+00  0.0000000000000D+00
   347  3.4600000000000D+00  0.0000000000000D+00  0.0000000000000D+00
   348  3.4700000000000D+00  0.0000000000000D+00  0.0000000000000D+00
   349  3.4800000000000D+00  0.0000000000000D+00  0.0000000000000D+00
   350  3.4900000000000D+00  0.0000000000000D+00  0.0000000000000D+00
   351  3.5000000000000D+00  0.0000000000000D+00  0.0000000000000D+00
   352  3.5100000000000D+00  0.0000000000000D+00  0.0000000000000D+00
   353  3.5200000000000D+00  0.0000000000000D+00  0.0000000000000D+00
   354  3.5300000000000D+00  0.0000000000000D+00  0.0000000000000D+00
   355  3.5400000000000D+00  0.0000000000000D+00  0.0000000000000D+00
   356  3.5500000000000D+00  0.0000000000000D+00  0.0000000000000D+00
   357  3.5600000000000D+00  0.0000000000000D+00  0.0000000000000D+00
   358  3.5700000000000D+00  0.0000000000000D+00  0.0000000000000D+00
   359  3.5800000000000D+00  0.0000000000000D+00  0.0000000000000D+00
   360  3.5900000000000D+00  0.0000000000000D+00  0.0000000000000D+00
   361  3.6000000000000D+00  0.0000000000000D+00  0.0000000000000D+00
   362  3.6100000000000D+00  0.0000000000000D+00  0.0000000000000D+00
   363  3.6200000000000D+00  0.0000000000000D+00  0.0000000000000D+00
   364  3.6300000000000D+00  0.0000000000000D+00  0.0000000000000D+00
   365  3.6400000000000D+00  0.0000000000000D+00  0.0000000000000D+00
   366  3.6500000000000D+00  0.0000000000000D+00  0.0000000000000D+00
   367  3.6600000000000D+00  0.0000000000000D+00  0.0000000000000D+00
   368  3.6700000000000D+00  0.0000000000000D+00  0.0000000000000D+00
   369  3.6800000000000D+00  0.0000000000000D+00  0.0000000000000D+00
   370  3.6900000000000D+00  0.0000000000000D+00  0.0000000000000D+00
   371  3.7000000000000D+00  0.0000000000000D+00  0.0000000000000D+00
   372  3.7100000000000D+00  0.0000000000000D+00  0.0000000000000D+00
   373  3.7200000000000D+00  0.0000000000000D+00  0.0000000000000D+00
   374  3.7300000000000D+00  0.0000000000000D+00  0.0000000000000D+00
   375  3.7400000000000D+00  0.0000000000000D+00  0.0000000000000D+00
   376  3.7500000000000D+00  0.0000000000000D+00  0.0000000000000D+00
   377  3.7600000000000D+00  0.0000000000000D+00  0.0000000000000D+00
   378  3.7700000000000D+00  0.0000000000000D+00  0.0000000000000D+00
   379  3.7800000000000D+00  0.0000000000000D+00  0.0000000000000D+00
   380  3.7900000000000D+00  0.0000000000000D+00  0.0000000000000D+00
   381  3.8000000000000D+00  0.0000000000000D+00  0.0000000000000D+00
   382  3.8100000000000D+00  0.0000000000000D+00  0.0000000000000D+00
   383  3.8200000000000D+00  0.0000000000000D+00  0.0000000000000D+00
   384  3.8300000000000D+00  0.0000000000000D+00  0.0000000000000D+00
   385  3.8400000000000D+00  0.0000000000000D+00  0.0000000000000D+00
   386  3.8500000000000D+00  0.0000000000000D+00  0.0000000000000D+00
   387  3.8600000000000D+00  0.0000000000000D+00  0.0000000000000D+00
   388  3.8700000000000D+00  0.0000000000000D+00  0.0000000000000D+00
   389  3.8800000000000D+00  0.0000000000000D+00  0.0000000000000D+00
   390  3.8900000000000D+00  0.0000000000000D+00  0.0000000000000D+00
   391  3.9000000000000D+00  0.0000000000000D+00  0.0000000000000D+00
   392  3.9100000000000D+00  0.0000000000000D+00  0.0000000000000D+00
   393  3.9200000000000D+00  0.0000000000000D+00  0.0000000000000D+00
   394  3.9300000000000D+00  0.0000000000000D+00  0.0000000000000D+00
   395  3.9400000000000D+00  0.0000000000000D+00  0.0000000000000D+00
   396  3.9500000000000D+00  0.0000000000000D+00  0.0000000000000D+00
   397  3.9600000000000D+00  0.0000000000000D+00  0.0000000000000D+00
   398  3.9700000000000D+00  0.0000000000000D+00  0.0000000000000D+00
   399  3.9800000000000D+00  0.0000000000000D+00  0.0000000000000D+00
   400  3.9900000000000D+00  0.0000000000000D+00  0.0000000000000D+00
   401  4.0000000000000D+00  0.0000000000000D+00  0.0000000000000D+00
   402  4.0100000000000D+00  0.0000000000000D+00  0.0000000000000D+00
   403  4.0200000000000D+00  0.0000000000000D+00  0.0000000000000D+00
   404  4.0300000000000D+00  0.0000000000000D+00  0.0000000000000D+00
   405  4.0400000000000D+00  0.0000000000000D+00  0.0000000000000D+00
   406  4.0500000000000D+00  0.0000000000000D+00  0.0000000000000D+00
   407  4.0600000000000D+00  0.0000000000000D+00  0.0000000000000D+00
   408  4.0700000000000D+00  0.0000000000000D+00  0.0000000000000D+00
   409  4.0800000000000D+00  0.0000000000000D+00  0.0000000000000D+00
   410  4.0900000000000D+00  0.0000000000000D+00  0.0000000000000D+00
   411  4.1000000000000D+00  0.0000000000000D+00  0.0000000000000D+00
   412  4.1100000000000D+00  0.0000000000000D+00  0.0000000000000D+00
   413  4.1200000000000D+00  0.0000000000000D+00  0.0000000000000D+00
   414  4.1300000000000D+00  0.0000000000000D+00  0.0000000000000D+00
   415  4.1400000000000D+00  0.0000000000000D+00  0.0000000000000D+00
   416  4.1500000000000D+00  0.0000000000000D+00  0.0000000000000D+00
   417  4.1600000000000D+00  0.0000000000000D+00  0.0000000000000D+00
   418  4.1700000000000D+00  0.0000000000000D+00  0.0000000000000D+00
   419  4.1800000000000D+00  0.0000000000000D+00  0.0000000000000D+00
   420  4.1900000000000D+00  0.0000000000000D+00  0.0000000000000D+00
   421  4.2000000000000D+00  0.0000000000000D+00  0.0000000000000D+00
   422  4.2100000000000D+00  0.0000000000000D+00  0.0000000000000D+00