Al    ONCVPSP-3.3.0  r_core=   1.76802   1.76802   1.70587
     13.0000      3.0000      220117    zatom,zion,pspd
     8      11   2     4   600     0    pspcod,pspxc,lmax,lloc,mmax,r2well
  5.99000000  0.00000000  0.00000000    rchrg fchrg qchrg
     2     2     2     0     0    nproj
     1     1           extension_switch
   0                         5.1266666012833D+00  7.2829148183393D-01
     1  0.0000000000000D+00 -1.5381086682087D-09  3.4041425372999D-09
     2  1.0000000000000D-02  2.2298172445122D-02 -7.7006378439679D-03
     3  2.0000000000000D-02  4.4482909179374D-02 -1.5144395292243D-02
     4  3.0000000000000D-02  6.6442672057962D-02 -2.2078637786369D-02
     5  4.0000000000000D-02  8.8069689879006D-02 -2.8259159988302D-02
     6  5.0000000000000D-02  1.0926177178014D-01 -3.3454245136760D-02
     7  6.0000000000000D-02  1.2992403765473D-01 -3.7448540554414D-02
     8  7.0000000000000D-02  1.4997053976020D-01 -4.0046692078844D-02
     9  8.0000000000000D-02  1.6932575122917D-01 -4.1076683594380D-02
    10  9.0000000000000D-02  1.8792589907639D-01 -4.0392832008007D-02
    11  1.0000000000000D-01  2.0572012149509D-01 -3.7878392882420D-02
    12  1.1000000000000D-01  2.2267143172426D-01 -3.3447737446124D-02
    13  1.2000000000000D-01  2.3875747351013D-01 -2.7048067767148D-02
    14  1.3000000000000D-01  2.5397105614123D-01 -1.8660643420089D-02
    15  1.4000000000000D-01  2.6832046016732D-01 -8.3014999042768D-03
    16  1.5000000000000D-01  2.8182950817376D-01  3.9783537115620D-03
    17  1.6000000000000D-01  2.9453739832962D-01  1.8093263036766D-02
    18  1.7000000000000D-01  3.0649830181356D-01  3.3923780124721D-02
    19  1.8000000000000D-01  3.1778072859876D-01  5.1318028910266D-02
    20  1.9000000000000D-01  3.2846666940042D-01  7.0093567120332D-02
    21  2.0000000000000D-01  3.3865052480975D-01  9.0039720333893D-02
    22  2.1000000000000D-01  3.4843783571202D-01  1.1092035706611D-01
    23  2.2000000000000D-01  3.5794383197063D-01  1.3247706737054D-01
    24  2.3000000000000D-01  3.6729181901296D-01  1.5443270158200D-01
    25  2.4000000000000D-01  3.7661142434012D-01  1.7649522054311D-01
    26  2.5000000000000D-01  3.8603672806790D-01  1.9836180404593D-01
    27  2.6000000000000D-01  3.9570430336061D-01  2.1972316033967D-01
    28  2.7000000000000D-01  4.0575119401741D-01  2.4026797646426D-01
    29  2.8000000000000D-01  4.1631285749278D-01  2.5968744691063D-01
    30  2.9000000000000D-01  4.2752110226327D-01  2.7767981671570D-01
    31  3.0000000000000D-01  4.3950204868183D-01  2.9395487459565D-01
    32  3.1000000000000D-01  4.5237414228501D-01  3.0823833211305D-01
    33  3.2000000000000D-01  4.6624624793784D-01  3.2027602616027D-01
    34  3.3000000000000D-01  4.8121585222408D-01  3.2983788420645D-01
    35  3.4000000000000D-01  4.9736740012669D-01  3.3672159477233D-01
    36  3.5000000000000D-01  5.1477079031424D-01  3.4075592942604D-01
    37  3.6000000000000D-01  5.3348005127453D-01  3.4180366718352D-01
    38  3.7000000000000D-01  5.5353221814629D-01  3.3976407748861D-01
    39  3.8000000000000D-01  5.7494642742354D-01  3.3457492386862D-01
    40  3.9000000000000D-01  5.9772324378282D-01  3.2621395683300D-01
    41  4.0000000000000D-01  6.2184423014889D-01  3.1469987151599D-01
    42  4.1000000000000D-01  6.4727176881364D-01  3.0009271286735D-01
    43  4.2000000000000D-01  6.7394913799908D-01  2.8249371876675D-01
    44  4.3000000000000D-01  7.0180084475652D-01  2.6204459917586D-01
    45  4.4000000000000D-01  7.3073321156744D-01  2.3892625723999D-01
    46  4.5000000000000D-01  7.6063521050527D-01  2.1335696600249D-01
    47  4.6000000000000D-01  7.9137953538042D-01  1.8559002199288D-01
    48  4.7000000000000D-01  8.2282389896982D-01  1.5591090428838D-01
    49  4.8000000000000D-01  8.5481253927382D-01  1.2463397462783D-01
    50  4.9000000000000D-01  8.8717791579045D-01  9.2098760677563D-02
    51  5.0000000000000D-01  9.1974257409288D-01  5.8665870521312D-02
    52  5.1000000000000D-01  9.5232115457540D-01  2.4712591786291D-02
    53  5.2000000000000D-01  9.8472251913365D-01 -9.3717665510261D-03
    54  5.3000000000000D-01  1.0167519677956D+00 -4.3190727781867D-02
    55  5.4000000000000D-01  1.0482135159432D+00 -7.6345631578809D-02
    56  5.5000000000000D-01  1.0789122017855D+00 -1.0844068153331D-01
    57  5.6000000000000D-01  1.1086563931761D+00 -1.3908798780266D-01
    58  5.7000000000000D-01  1.1372600627165D+00 -1.6791253624223D-01
    59  5.8000000000000D-01  1.1645450003621D+00 -1.9455701602453D-01
    60  5.9000000000000D-01  1.1903429334474D+00 -2.1868643931394D-01
    61  6.0000000000000D-01  1.2144975251505D+00 -2.3999248903437D-01
    62  6.1000000000000D-01  1.2368662239402D+00 -2.5819753415049D-01
    63  6.2000000000000D-01  1.2573219384298D+00 -2.7305825607059D-01
    64  6.3000000000000D-01  1.2757545143290D+00 -2.8436883481119D-01
    65  6.4000000000000D-01  1.2920719927563D+00 -2.9196364927558D-01
    66  6.5000000000000D-01  1.3062016320565D+00 -2.9571945238769D-01
    67  6.6000000000000D-01  1.3180906784073D+00 -2.9555698879357D-01
    68  6.7000000000000D-01  1.3277068738493D+00 -2.9144203026178D-01
    69  6.8000000000000D-01  1.3350386938950D+00 -2.8338581172805D-01
    70  6.9000000000000D-01  1.3400953105353D+00 -2.7144485903736D-01
    71  7.0000000000000D-01  1.3429062801813D+00 -2.5572020768517D-01
    72  7.1000000000000D-01  1.3435209598352D+00 -2.3635602016718D-01
    73  7.2000000000000D-01  1.3420076585135D+00 -2.1353761781576D-01
    74  7.3000000000000D-01  1.3384525346101D+00 -1.8748895109797D-01
    75  7.4000000000000D-01  1.3329582534059D+00 -1.5846954015228D-01
    76  7.5000000000000D-01  1.3256424222989D+00 -1.2677092477328D-01
    77  7.6000000000000D-01  1.3166358244656D+00 -9.2712670002986D-02
    78  7.7000000000000D-01  1.3060804745340D+00 -5.6637979816838D-02
    79  7.8000000000000D-01  1.2941275224326D+00 -1.8908977108027D-02
    80  7.9000000000000D-01  1.2809350338050D+00  2.0098286923354D-02
    81  8.0000000000000D-01  1.2666656772427D+00  5.9999026759882D-02
    82  8.1000000000000D-01  1.2514843500506D+00  1.0040504950364D-01
    83  8.2000000000000D-01  1.2355557753017D+00  1.4093014204703D-01
    84  8.3000000000000D-01  1.2190421035403D+00  1.8119544445422D-01
    85  8.4000000000000D-01  1.2021005526461D+00  2.2083473521384D-01
    86  8.5000000000000D-01  1.1848811190740D+00  2.5949955471304D-01
    87  8.6000000000000D-01  1.1675243929343D+00  2.9686409497541D-01
    88  8.7000000000000D-01  1.1501595081784D+00  3.3262978638357D-01
    89  8.8000000000000D-01  1.1329022575287D+00  3.6652951574318D-01
    90  8.9000000000000D-01  1.1158533997504D+00  3.9833141459619D-01
    91  9.0000000000000D-01  1.0990971844304D+00  4.2784216210090D-01
    92  9.1000000000000D-01  1.0827001166418D+00  4.5490975300183D-01
    93  9.2000000000000D-01  1.0667099807596D+00  4.7942568813332D-01
    94  9.3000000000000D-01  1.0511551392948D+00  5.0132655244957D-01
    95  9.4000000000000D-01  1.0360441189772D+00  5.2059495365744D-01
    96  9.5000000000000D-01  1.0213654924911D+00  5.3725980302628D-01
    97  9.6000000000000D-01  1.0070880602581D+00  5.5139592884558D-01
    98  9.7000000000000D-01  9.9316133265440D-01  5.6312302190144D-01
    99  9.8000000000000D-01  9.7951630888822D-01  5.7260392157239D-01
   100  9.9000000000000D-01  9.6606654467519D-01  5.8004226021458D-01
   101  1.0000000000000D+00  9.5270949684628D-01  5.8567949238480D-01
   102  1.0100000000000D+00  9.3932812910732D-01  5.8979134412956D-01
   103  1.0200000000000D+00  9.2579275945697D-01  5.9268372579640D-01
   104  1.0300000000000D+00  9.1196312621642D-01  5.9468815969746D-01
   105  1.0400000000000D+00  8.9769064653056D-01  5.9615678080581D-01
   106  1.0500000000000D+00  8.8282083816406D-01  5.9745697538749D-01
   107  1.0600000000000D+00  8.6719587291745D-01  5.9896572799796D-01
   108  1.0700000000000D+00  8.5065722787075D-01  6.0106375195384D-01
   109  1.0800000000000D+00  8.3304839890610D-01  6.0412948226578D-01
   110  1.0900000000000D+00  8.1421763976646D-01  6.0853301265012D-01
   111  1.1000000000000D+00  7.9402068903045D-01  6.1463006016106D-01
   112  1.1100000000000D+00  7.7232344712742D-01  6.2275604153066D-01
   113  1.1200000000000D+00  7.4900456571182D-01  6.3322034484985D-01
   114  1.1300000000000D+00  7.2395791257983D-01  6.4630087828336D-01
   115  1.1400000000000D+00  6.9709487606134D-01  6.6223897582878D-01
   116  1.1500000000000D+00  6.6834647499286D-01  6.8123473528159D-01
   117  1.1600000000000D+00  6.3766524224340D-01  7.0344285940951D-01
   118  1.1700000000000D+00  6.0502685267674D-01  7.2896906485670D-01
   119  1.1800000000000D+00  5.7043146852206D-01  7.5786711864797D-01
   120  1.1900000000000D+00  5.3390477966528D-01  7.9013655206455D-01
   121  1.2000000000000D+00  4.9549871976466D-01  8.2572109412337D-01
   122  1.2100000000000D+00  4.5529184219922D-01  8.6450785998974D-01
   123  1.2200000000000D+00  4.1338934496025D-01  9.0632731831312D-01
   124  1.2300000000000D+00  3.6992273833026D-01  9.5095405096143D-01
   125  1.2400000000000D+00  3.2504915305697D-01  9.9810831004689D-01
   126  1.2500000000000D+00  2.7895029055031D-01  1.0474583686505D+00
   127  1.2600000000000D+00  2.3183102373151D-01  1.0986236458861D+00
   128  1.2700000000000D+00  1.8391766010090D-01  1.1511785804258D+00
   129  1.2800000000000D+00  1.3545588153811D-01  1.2046572200637D+00
   130  1.2900000000000D+00  8.6708383749173D-02  1.2585584762541D+00
   131  1.3000000000000D+00  3.7952239274746D-02  1.3123519903459D+00
   132  1.3100000000000D+00 -1.0523988896188D-02  1.3654845512864D+00
   133  1.3200000000000D+00 -5.8423348513987D-02  1.4173869878317D+00
   134  1.3300000000000D+00 -1.0544378060776D-01  1.4674814608410D+00
   135  1.3400000000000D+00 -1.5128154553682D-01  1.5151890714928D+00
   136  1.3500000000000D+00 -1.9563475093955D-01  1.5599376929172D+00
   137  1.3600000000000D+00 -2.3820694156220D-01  1.6011699363536D+00
   138  1.3700000000000D+00 -2.7871070632114D-01  1.6383511586722D+00
   139  1.3800000000000D+00 -3.1687125965277D-01  1.6709773790043D+00
   140  1.3900000000000D+00 -3.5242995084305D-01  1.6985830872959D+00
   141  1.4000000000000D+00 -3.8514766465975D-01  1.7207487635289D+00
   142  1.4100000000000D+00 -4.1480805650509D-01  1.7371080452934D+00
   143  1.4200000000000D+00 -4.4122058422405D-01  1.7473534970284D+00
   144  1.4300000000000D+00 -4.6422326724717D-01  1.7512415840562D+00
   145  1.4400000000000D+00 -4.8368497508449D-01  1.7485926552663D+00
   146  1.4500000000000D+00 -4.9950732003992D-01  1.7392911066749D+00
   147  1.4600000000000D+00 -5.1162608642303D-01  1.7232864344137D+00
   148  1.4700000000000D+00 -5.2001219003228D-01  1.7005927937449D+00
   149  1.4800000000000D+00 -5.2467218503101D-01  1.6712880266493D+00
   150  1.4900000000000D+00 -5.2564829734309D-01  1.6355124559766D+00
   151  1.5000000000000D+00 -5.2301804055232D-01  1.5934673571116D+00
   152  1.5100000000000D+00 -5.1689341463416D-01  1.5454133600406D+00
   153  1.5200000000000D+00 -5.0741974052149D-01  1.4916686975416D+00
   154  1.5300000000000D+00 -4.9477415067365D-01  1.4326073900892D+00
   155  1.5400000000000D+00 -4.7916377875284D-01  1.3686572639282D+00
   156  1.5500000000000D+00 -4.6082366533957D-01  1.3002977442799D+00
   157  1.5600000000000D+00 -4.4001441703423D-01  1.2280572745482D+00
   158  1.5700000000000D+00 -4.1701962545106D-01  1.1525103182917D+00
   159  1.5800000000000D+00 -3.9214307270777D-01  1.0742736899555D+00
   160  1.5900000000000D+00 -3.6570573548109D-01  9.9400233430391D-01
   161  1.6000000000000D+00 -3.3804259544185D-01  9.1238422648393D-01
   162  1.6100000000000D+00 -3.0949928906400D-01  8.3013466345781D-01
   163  1.6200000000000D+00 -2.8042859518762D-01  7.4798968975632D-01
   164  1.6300000000000D+00 -2.5118681041848D-01  6.6669896237731D-01
   165  1.6400000000000D+00 -2.2213001633132D-01  5.8701794024878D-01
   166  1.6500000000000D+00 -1.9361029819879D-01  5.0969968729234D-01
   167  1.6600000000000D+00 -1.6597193280482D-01  4.3548630425511D-01
   168  1.6700000000000D+00 -1.3954760740664D-01  3.6510023426981D-01
   169  1.6800000000000D+00 -1.1465469955472D-01  2.9923553613013D-01
   170  1.6900000000000D+00 -9.1591677964165D-02  2.3854932391465D-01
   171  1.7000000000000D+00 -7.0634661080727D-02  1.8365350019968D-01
   172  1.7100000000000D+00 -5.2042475719204D-02  1.3512846745560D-01
   173  1.7200000000000D+00 -3.6025527252303D-02  9.3442729278491D-02
   174  1.7300000000000D+00 -2.2716238634425D-02  5.8876737776094D-02
   175  1.7400000000000D+00 -1.2343702689737D-02  3.1976236821283D-02
   176  1.7500000000000D+00 -5.2549257248132D-03  1.3606898468701D-02
   177  1.7600000000000D+00 -1.3486746527872D-03  3.4878299365073D-03
   178  1.7700000000000D+00  1.8191734846091D-04 -4.7589109092508D-04
   179  1.7800000000000D+00  3.1554347359620D-04 -8.1934699960766D-04
   180  1.7900000000000D+00 -1.6475527979884D-05  4.2749871829761D-05
   181  1.8000000000000D+00 -1.1068972906058D-04  2.8710682619791D-04
   182  1.8100000000000D+00 -1.0004683477456D-05  2.5944863506490D-05
   183  1.8200000000000D+00  2.0131033225315D-05 -5.2271950612666D-05
   184  1.8300000000000D+00  6.6027198429051D-06 -1.7142489206670D-05
   185  1.8400000000000D+00 -5.5243746271900D-08  1.5657613875398D-07
   186  1.8500000000000D+00 -3.3559400425818D-08  9.5116672785208D-08
   187  1.8600000000000D+00  0.0000000000000D+00  0.0000000000000D+00
   188  1.8700000000000D+00  0.0000000000000D+00  0.0000000000000D+00
   189  1.8800000000000D+00  0.0000000000000D+00  0.0000000000000D+00
   190  1.8900000000000D+00  0.0000000000000D+00  0.0000000000000D+00
   191  1.9000000000000D+00  0.0000000000000D+00  0.0000000000000D+00
   192  1.9100000000000D+00  0.0000000000000D+00  0.0000000000000D+00
   193  1.9200000000000D+00  0.0000000000000D+00  0.0000000000000D+00
   194  1.9300000000000D+00  0.0000000000000D+00  0.0000000000000D+00
   195  1.9400000000000D+00  0.0000000000000D+00  0.0000000000000D+00
   196  1.9500000000000D+00  0.0000000000000D+00  0.0000000000000D+00
   197  1.9600000000000D+00  0.0000000000000D+00  0.0000000000000D+00
   198  1.9700000000000D+00  0.0000000000000D+00  0.0000000000000D+00
   199  1.9800000000000D+00  0.0000000000000D+00  0.0000000000000D+00
   200  1.9900000000000D+00  0.0000000000000D+00  0.0000000000000D+00
   201  2.0000000000000D+00  0.0000000000000D+00  0.0000000000000D+00
   202  2.0100000000000D+00  0.0000000000000D+00  0.0000000000000D+00
   203  2.0200000000000D+00  0.0000000000000D+00  0.0000000000000D+00
   204  2.0300000000000D+00  0.0000000000000D+00  0.0000000000000D+00
   205  2.0400000000000D+00  0.0000000000000D+00  0.0000000000000D+00
   206  2.0500000000000D+00  0.0000000000000D+00  0.0000000000000D+00
   207  2.0600000000000D+00  0.0000000000000D+00  0.0000000000000D+00
   208  2.0700000000000D+00  0.0000000000000D+00  0.0000000000000D+00
   209  2.0800000000000D+00  0.0000000000000D+00  0.0000000000000D+00
   210  2.0900000000000D+00  0.0000000000000D+00  0.0000000000000D+00
   211  2.1000000000000D+00  0.0000000000000D+00  0.0000000000000D+00
   212  2.1100000000000D+00  0.0000000000000D+00  0.0000000000000D+00
   213  2.1200000000000D+00  0.0000000000000D+00  0.0000000000000D+00
   214  2.1300000000000D+00  0.0000000000000D+00  0.0000000000000D+00
   215  2.1400000000000D+00  0.0000000000000D+00  0.0000000000000D+00
   216  2.1500000000000D+00  0.0000000000000D+00  0.0000000000000D+00
   217  2.1600000000000D+00  0.0000000000000D+00  0.0000000000000D+00
   218  2.1700000000000D+00  0.0000000000000D+00  0.0000000000000D+00
   219  2.1800000000000D+00  0.0000000000000D+00  0.0000000000000D+00
   220  2.1900000000000D+00  0.0000000000000D+00  0.0000000000000D+00
   221  2.2000000000000D+00  0.0000000000000D+00  0.0000000000000D+00
   222  2.2100000000000D+00  0.0000000000000D+00  0.0000000000000D+00
   223  2.2200000000000D+00  0.0000000000000D+00  0.0000000000000D+00
   224  2.2300000000000D+00  0.0000000000000D+00  0.0000000000000D+00
   225  2.2400000000000D+00  0.0000000000000D+00  0.0000000000000D+00
   226  2.2500000000000D+00  0.0000000000000D+00  0.0000000000000D+00
   227  2.2600000000000D+00  0.0000000000000D+00  0.0000000000000D+00
   228  2.2700000000000D+00  0.0000000000000D+00  0.0000000000000D+00
   229  2.2800000000000D+00  0.0000000000000D+00  0.0000000000000D+00
   230  2.2900000000000D+00  0.0000000000000D+00  0.0000000000000D+00
   231  2.3000000000000D+00  0.0000000000000D+00  0.0000000000000D+00
   232  2.3100000000000D+00  0.0000000000000D+00  0.0000000000000D+00
   233  2.3200000000000D+00  0.0000000000000D+00  0.0000000000000D+00
   234  2.3300000000000D+00  0.0000000000000D+00  0.0000000000000D+00
   235  2.3400000000000D+00  0.0000000000000D+00  0.0000000000000D+00
   236  2.3500000000000D+00  0.0000000000000D+00  0.0000000000000D+00
   237  2.3600000000000D+00  0.0000000000000D+00  0.0000000000000D+00
   238  2.3700000000000D+00  0.0000000000000D+00  0.0000000000000D+00
   239  2.3800000000000D+00  0.0000000000000D+00  0.0000000000000D+00
   240  2.3900000000000D+00  0.0000000000000D+00  0.0000000000000D+00
   241  2.4000000000000D+00  0.0000000000000D+00  0.0000000000000D+00
   242  2.4100000000000D+00  0.0000000000000D+00  0.0000000000000D+00
   243  2.4200000000000D+00  0.0000000000000D+00  0.0000000000000D+00
   244  2.4300000000000D+00  0.0000000000000D+00  0.0000000000000D+00
   245  2.4400000000000D+00  0.0000000000000D+00  0.0000000000000D+00
   246  2.4500000000000D+00  0.0000000000000D+00  0.0000000000000D+00
   247  2.4600000000000D+00  0.0000000000000D+00  0.0000000000000D+00
   248  2.4700000000000D+00  0.0000000000000D+00  0.0000000000000D+00
   249  2.4800000000000D+00  0.0000000000000D+00  0.0000000000000D+00
   250  2.4900000000000D+00  0.0000000000000D+00  0.0000000000000D+00
   251  2.5000000000000D+00  0.0000000000000D+00  0.0000000000000D+00
   252  2.5100000000000D+00  0.0000000000000D+00  0.0000000000000D+00
   253  2.5200000000000D+00  0.0000000000000D+00  0.0000000000000D+00
   254  2.5300000000000D+00  0.0000000000000D+00  0.0000000000000D+00
   255  2.5400000000000D+00  0.0000000000000D+00  0.0000000000000D+00
   256  2.5500000000000D+00  0.0000000000000D+00  0.0000000000000D+00
   257  2.5600000000000D+00  0.0000000000000D+00  0.0000000000000D+00
   258  2.5700000000000D+00  0.0000000000000D+00  0.0000000000000D+00
   259  2.5800000000000D+00  0.0000000000000D+00  0.0000000000000D+00
   260  2.5900000000000D+00  0.0000000000000D+00  0.0000000000000D+00
   261  2.6000000000000D+00  0.0000000000000D+00  0.0000000000000D+00
   262  2.6100000000000D+00  0.0000000000000D+00  0.0000000000000D+00
   263  2.6200000000000D+00  0.0000000000000D+00  0.0000000000000D+00
   264  2.6300000000000D+00  0.0000000000000D+00  0.0000000000000D+00
   265  2.6400000000000D+00  0.0000000000000D+00  0.0000000000000D+00
   266  2.6500000000000D+00  0.0000000000000D+00  0.0000000000000D+00
   267  2.6600000000000D+00  0.0000000000000D+00  0.0000000000000D+00
   268  2.6700000000000D+00  0.0000000000000D+00  0.0000000000000D+00
   269  2.6800000000000D+00  0.0000000000000D+00  0.0000000000000D+00
   270  2.6900000000000D+00  0.0000000000000D+00  0.0000000000000D+00
   271  2.7000000000000D+00  0.0000000000000D+00  0.0000000000000D+00
   272  2.7100000000000D+00  0.0000000000000D+00  0.0000000000000D+00
   273  2.7200000000000D+00  0.0000000000000D+00  0.0000000000000D+00
   274  2.7300000000000D+00  0.0000000000000D+00  0.0000000000000D+00
   275  2.7400000000000D+00  0.0000000000000D+00  0.0000000000000D+00
   276  2.7500000000000D+00  0.0000000000000D+00  0.0000000000000D+00
   277  2.7600000000000D+00  0.0000000000000D+00  0.0000000000000D+00
   278  2.7700000000000D+00  0.0000000000000D+00  0.0000000000000D+00
   279  2.7800000000000D+00  0.0000000000000D+00  0.0000000000000D+00
   280  2.7900000000000D+00  0.0000000000000D+00  0.0000000000000D+00
   281  2.8000000000000D+00  0.0000000000000D+00  0.0000000000000D+00
   282  2.8100000000000D+00  0.0000000000000D+00  0.0000000000000D+00
   283  2.8200000000000D+00  0.0000000000000D+00  0.0000000000000D+00
   284  2.8300000000000D+00  0.0000000000000D+00  0.0000000000000D+00
   285  2.8400000000000D+00  0.0000000000000D+00  0.0000000000000D+00
   286  2.8500000000000D+00  0.0000000000000D+00  0.0000000000000D+00
   287  2.8600000000000D+00  0.0000000000000D+00  0.0000000000000D+00
   288  2.8700000000000D+00  0.0000000000000D+00  0.0000000000000D+00
   289  2.8800000000000D+00  0.0000000000000D+00  0.0000000000000D+00
   290  2.8900000000000D+00  0.0000000000000D+00  0.0000000000000D+00
   291  2.9000000000000D+00  0.0000000000000D+00  0.0000000000000D+00
   292  2.9100000000000D+00  0.0000000000000D+00  0.0000000000000D+00
   293  2.9200000000000D+00  0.0000000000000D+00  0.0000000000000D+00
   294  2.9300000000000D+00  0.0000000000000D+00  0.0000000000000D+00
   295  2.9400000000000D+00  0.0000000000000D+00  0.0000000000000D+00
   296  2.9500000000000D+00  0.0000000000000D+00  0.0000000000000D+00
   297  2.9600000000000D+00  0.0000000000000D+00  0.0000000000000D+00
   298  2.9700000000000D+00  0.0000000000000D+00  0.0000000000000D+00
   299  2.9800000000000D+00  0.0000000000000D+00  0.0000000000000D+00
   300  2.9900000000000D+00  0.0000000000000D+00  0.0000000000000D+00
   301  3.0000000000000D+00  0.0000000000000D+00  0.0000000000000D+00
   302  3.0100000000000D+00  0.0000000000000D+00  0.0000000000000D+00
   303  3.0200000000000D+00  0.0000000000000D+00  0.0000000000000D+00
   304  3.0300000000000D+00  0.0000000000000D+00  0.0000000000000D+00
   305  3.0400000000000D+00  0.0000000000000D+00  0.0000000000000D+00
   306  3.0500000000000D+00  0.0000000000000D+00  0.0000000000000D+00
   307  3.0600000000000D+00  0.0000000000000D+00  0.0000000000000D+00
   308  3.0700000000000D+00  0.0000000000000D+00  0.0000000000000D+00
   309  3.0800000000000D+00  0.0000000000000D+00  0.0000000000000D+00
   310  3.0900000000000D+00  0.0000000000000D+00  0.0000000000000D+00
   311  3.1000000000000D+00  0.0000000000000D+00  0.0000000000000D+00
   312  3.1100000000000D+00  0.0000000000000D+00  0.0000000000000D+00
   313  3.1200000000000D+00  0.0000000000000D+00  0.0000000000000D+00
   314  3.1300000000000D+00  0.0000000000000D+00  0.0000000000000D+00
   315  3.1400000000000D+00  0.0000000000000D+00  0.0000000000000D+00
   316  3.1500000000000D+00  0.0000000000000D+00  0.0000000000000D+00
   317  3.1600000000000D+00  0.0000000000000D+00  0.0000000000000D+00
   318  3.1700000000000D+00  0.0000000000000D+00  0.0000000000000D+00
   319  3.1800000000000D+00  0.0000000000000D+00  0.0000000000000D+00
   320  3.1900000000000D+00  0.0000000000000D+00  0.0000000000000D+00
   321  3.2000000000000D+00  0.0000000000000D+00  0.0000000000000D+00
   322  3.2100000000000D+00  0.0000000000000D+00  0.0000000000000D+00
   323  3.2200000000000D+00  0.0000000000000D+00  0.0000000000000D+00
   324  3.2300000000000D+00  0.0000000000000D+00  0.0000000000000D+00
   325  3.2400000000000D+00  0.0000000000000D+00  0.0000000000000D+00
   326  3.2500000000000D+00  0.0000000000000D+00  0.0000000000000D+00
   327  3.2600000000000D+00  0.0000000000000D+00  0.0000000000000D+00
   328  3.2700000000000D+00  0.0000000000000D+00  0.0000000000000D+00
   329  3.2800000000000D+00  0.0000000000000D+00  0.0000000000000D+00
   330  3.2900000000000D+00  0.0000000000000D+00  0.0000000000000D+00
   331  3.3000000000000D+00  0.0000000000000D+00  0.0000000000000D+00
   332  3.3100000000000D+00  0.0000000000000D+00  0.0000000000000D+00
   333  3.3200000000000D+00  0.0000000000000D+00  0.0000000000000D+00
   334  3.3300000000000D+00  0.0000000000000D+00  0.0000000000000D+00
   335  3.3400000000000D+00  0.0000000000000D+00  0.0000000000000D+00
   336  3.3500000000000D+00  0.0000000000000D+00  0.0000000000000D+00
   337  3.3600000000000D+00  0.0000000000000D+00  0.0000000000000D+00
   338  3.3700000000000D+00  0.0000000000000D+00  0.0000000000000D+00
   339  3.3800000000000D+00  0.0000000000000D+00  0.0000000000000D+00
   340  3.3900000000000D+00  0.0000000000000D+00  0.0000000000000D+00
   341  3.4000000000000D+00  0.0000000000000D+00  0.0000000000000D+00
   342  3.4100000000000D+00  0.0000000000000D+00  0.0000000000000D+00
   343  3.4200000000000D+00  0.0000000000000D+00  0.0000000000000D+00
   344  3.4300000000000D+00  0.0000000000000D+00  0.0000000000000D+00
   345  3.4400000000000D+00  0.0000000000000D+00  0.0000000000000D+00
   346  3.4500000000000D+00  0.0000000000000D+00  0.0000000000000D+00
   347  3.4600000000000D+00  0.0000000000000D+00  0.0000000000000D+00
   348  3.4700000000000D+00  0.0000000000000D+00  0.0000000000000D+00
   349  3.4800000000000D+00  0.0000000000000D+00  0.0000000000000D+00
   350  3.4900000000000D+00  0.0000000000000D+00  0.0000000000000D+00
   351  3.5000000000000D+00  0.0000000000000D+00  0.0000000000000D+00
   352  3.5100000000000D+00  0.0000000000000D+00  0.0000000000000D+00
   353  3.5200000000000D+00  0.0000000000000D+00  0.0000000000000D+00
   354  3.5300000000000D+00  0.0000000000000D+00  0.0000000000000D+00
   355  3.5400000000000D+00  0.0000000000000D+00  0.0000000000000D+00
   356  3.5500000000000D+00  0.0000000000000D+00  0.0000000000000D+00
   357  3.5600000000000D+00  0.0000000000000D+00  0.0000000000000D+00
   358  3.5700000000000D+00  0.0000000000000D+00  0.0000000000000D+00
   359  3.5800000000000D+00  0.0000000000000D+00  0.0000000000000D+00
   360  3.5900000000000D+00  0.0000000000000D+00  0.0000000000000D+00
   361  3.6000000000000D+00  0.0000000000000D+00  0.0000000000000D+00
   362  3.6100000000000D+00  0.0000000000000D+00  0.0000000000000D+00
   363  3.6200000000000D+00  0.0000000000000D+00  0.0000000000000D+00
   364  3.6300000000000D+00  0.0000000000000D+00  0.0000000000000D+00
   365  3.6400000000000D+00  0.0000000000000D+00  0.0000000000000D+00
   366  3.6500000000000D+00  0.0000000000000D+00  0.0000000000000D+00
   367  3.6600000000000D+00  0.0000000000000D+00  0.0000000000000D+00
   368  3.6700000000000D+00  0.0000000000000D+00  0.0000000000000D+00
   369  3.6800000000000D+00  0.0000000000000D+00  0.0000000000000D+00
   370  3.6900000000000D+00  0.0000000000000D+00  0.0000000000000D+00
   371  3.7000000000000D+00  0.0000000000000D+00  0.0000000000000D+00
   372  3.7100000000000D+00  0.0000000000000D+00  0.0000000000000D+00
   373  3.7200000000000D+00  0.0000000000000D+00  0.0000000000000D+00
   374  3.7300000000000D+00  0.0000000000000D+00  0.0000000000000D+00
   375  3.7400000000000D+00  0.0000000000000D+00  0.0000000000000D+00
   376  3.7500000000000D+00  0.0000000000000D+00  0.0000000000000D+00
   377  3.7600000000000D+00  0.0000000000000D+00  0.0000000000000D+00
   378  3.7700000000000D+00  0.0000000000000D+00  0.0000000000000D+00
   379  3.7800000000000D+00  0.0000000000000D+00  0.0000000000000D+00
   380  3.7900000000000D+00  0.0000000000000D+00  0.0000000000000D+00
   381  3.8000000000000D+00  0.0000000000000D+00  0.0000000000000D+00
   382  3.8100000000000D+00  0.0000000000000D+00  0.0000000000000D+00
   383  3.8200000000000D+00  0.0000000000000D+00  0.0000000000000D+00
   384  3.8300000000000D+00  0.0000000000000D+00  0.0000000000000D+00
   385  3.8400000000000D+00  0.0000000000000D+00  0.0000000000000D+00
   386  3.8500000000000D+00  0.0000000000000D+00  0.0000000000000D+00
   387  3.8600000000000D+00  0.0000000000000D+00  0.0000000000000D+00
   388  3.8700000000000D+00  0.0000000000000D+00  0.0000000000000D+00
   389  3.8800000000000D+00  0.0000000000000D+00  0.0000000000000D+00
   390  3.8900000000000D+00  0.0000000000000D+00  0.0000000000000D+00
   391  3.9000000000000D+00  0.0000000000000D+00  0.0000000000000D+00
   392  3.9100000000000D+00  0.0000000000000D+00  0.0000000000000D+00
   393  3.9200000000000D+00  0.0000000000000D+00  0.0000000000000D+00
   394  3.9300000000000D+00  0.0000000000000D+00  0.0000000000000D+00
   395  3.9400000000000D+00  0.0000000000000D+00  0.0000000000000D+00
   396  3.9500000000000D+00  0.0000000000000D+00  0.0000000000000D+00
   397  3.9600000000000D+00  0.0000000000000D+00  0.0000000000000D+00
   398  3.9700000000000D+00  0.0000000000000D+00  0.0000000000000D+00
   399  3.9800000000000D+00  0.0000000000000D+00  0.0000000000000D+00
   400  3.9900000000000D+00  0.0000000000000D+00  0.0000000000000D+00
   401  4.0000000000000D+00  0.0000000000000D+00  0.0000000000000D+00
   402  4.0100000000000D+00  0.0000000000000D+00  0.0000000000000D+00
   403  4.0200000000000D+00  0.0000000000000D+00  0.0000000000000D+00
   404  4.0300000000000D+00  0.0000000000000D+00  0.0000000000000D+00
   405  4.0400000000000D+00  0.0000000000000D+00  0.0000000000000D+00
   406  4.0500000000000D+00  0.0000000000000D+00  0.0000000000000D+00
   407  4.0600000000000D+00  0.0000000000000D+00  0.0000000000000D+00
   408  4.0700000000000D+00  0.0000000000000D+00  0.0000000000000D+00
   409  4.0800000000000D+00  0.0000000000000D+00  0.0000000000000D+00
   410  4.0900000000000D+00  0.0000000000000D+00  0.0000000000000D+00
   411  4.1000000000000D+00  0.0000000000000D+00  0.0000000000000D+00
   412  4.1100000000000D+00  0.0000000000000D+00  0.0000000000000D+00
   413  4.1200000000000D+00  0.0000000000000D+00  0.0000000000000D+00
   414  4.1300000000000D+00  0.0000000000000D+00  0.0000000000000D+00
   415  4.1400000000000D+00  0.0000000000000D+00  0.0000000000000D+00
   416  4.1500000000000D+00  0.0000000000000D+00  0.0000000000000D+00
   417  4.1600000000000D+00  0.0000000000000D+00  0.0000000000000D+00
   418  4.1700000000000D+00  0.0000000000000D+00  0.0000000000000D+00
   419  4.1800000000000D+00  0.0000000000000D+00  0.0000000000000D+00
   420  4.1900000000000D+00  0.0000000000000D+00  0.0000000000000D+00
   421  4.2000000000000D+00  0.0000000000000D+00  0.0000000000000D+00
   422  4.2100000000000D+00  0.0000000000000D+00  0.0000000000000D+00