Co    ONCVPSP-3.3.0  r_core=   1.26190   1.32357   1.66026
     27.0000     17.0000      220117    zatom,zion,pspd
     8      11   2     4   600     0    pspcod,pspxc,lmax,lloc,mmax,r2well
  5.99000000  0.00000000  0.00000000    rchrg fchrg qchrg
     2     2     2     0     0    nproj
     1     1           extension_switch
   0                         6.2911464146726D+00 -6.7722452645498D-01
     1  0.0000000000000D+00  4.9018233916343D-11  3.7837173394450D-09
     2  1.0000000000000D-02  9.2557987037584D-02  3.1469038801987D-02
     3  2.0000000000000D-02  1.8484373212800D-01  6.2974077259309D-02
     4  3.0000000000000D-02  2.7658588689060D-01  9.4547343168400D-02
     5  4.0000000000000D-02  3.6751488804403D-01  1.2621358951295D-01
     6  5.0000000000000D-02  4.5736384485853D-01  1.5798652834383D-01
     7  6.0000000000000D-02  5.4586942045505D-01  1.8986546748134D-01
     8  7.0000000000000D-02  6.3277270484063D-01  2.2183221314786D-01
     9  8.0000000000000D-02  7.1782007752059D-01  2.5384829785538D-01
    10  9.0000000000000D-02  8.0076405746889D-01  2.8585258823194D-01
    11  1.0000000000000D-01  8.8136413817136D-01  3.1775932203275D-01
    12  1.1000000000000D-01  9.5938760538254D-01  3.4945661741407D-01
    13  1.2000000000000D-01  1.0346103351593D+00  3.8080549072855D-01
    14  1.3000000000000D-01  1.1068175696544D+00  4.1163941171635D-01
    15  1.4000000000000D-01  1.1758046680734D+00  4.4176441711123D-01
    16  1.5000000000000D-01  1.2413778301219D+00  4.7095979545511D-01
    17  1.6000000000000D-01  1.3033547892000D+00  4.9897934742474D-01
    18  1.7000000000000D-01  1.3615654725367D+00  5.2555321733008D-01
    19  1.8000000000000D-01  1.4158526254071D+00  5.5039028275842D-01
    20  1.9000000000000D-01  1.4660723965385D+00  5.7318108072617D-01
    21  2.0000000000000D-01  1.5120948817890D+00  5.9360124027567D-01
    22  2.1000000000000D-01  1.5538046231834D+00  6.1131538333129D-01
    23  2.2000000000000D-01  1.5911010604096D+00  6.2598144791741D-01
    24  2.3000000000000D-01  1.6238989319236D+00  6.3725538064862D-01
    25  2.4000000000000D-01  1.6521286228830D+00  6.4479613882991D-01
    26  2.5000000000000D-01  1.6757364572236D+00  6.4827093664735D-01
    27  2.6000000000000D-01  1.6946849313243D+00  6.4736066487444D-01
    28  2.7000000000000D-01  1.7089528868595D+00  6.4176540934394D-01
    29  2.8000000000000D-01  1.7185356206287D+00  6.3120999020761D-01
    30  2.9000000000000D-01  1.7234449293705D+00  6.1544944178305D-01
    31  3.0000000000000D-01  1.7237090878200D+00  5.9427435161308D-01
    32  3.1000000000000D-01  1.7193727585475D+00  5.6751597727088D-01
    33  3.2000000000000D-01  1.7104968324310D+00  5.3505106045115D-01
    34  3.3000000000000D-01  1.6971581989490D+00  4.9680626000067D-01
    35  3.4000000000000D-01  1.6794494458520D+00  4.5276212875027D-01
    36  3.5000000000000D-01  1.6574784881540D+00  4.0295656329151D-01
    37  3.6000000000000D-01  1.6313681268044D+00  3.4748766115878D-01
    38  3.7000000000000D-01  1.6012555378263D+00  2.8651592617935D-01
    39  3.8000000000000D-01  1.5672916931540D+00  2.2026576997485D-01
    40  3.9000000000000D-01  1.5296407148621D+00  1.4902626566148D-01
    41  4.0000000000000D-01  1.4884791649406D+00  7.3151118612475D-02
    42  4.1000000000000D-01  1.4439952732409D+00 -6.9421713862589D-03
    43  4.2000000000000D-01  1.3963881066828D+00 -9.0773972248680D-02
    44  4.3000000000000D-01  1.3458666832746D+00 -1.7780501120248D-01
    45  4.4000000000000D-01  1.2926490349495D+00 -2.6743969041738D-01
    46  4.5000000000000D-01  1.2369612236527D+00 -3.5903021028176D-01
    47  4.6000000000000D-01  1.1790363155316D+00 -4.5188147306343D-01
    48  4.7000000000000D-01  1.1191133184670D+00 -5.4525672891124D-01
    49  4.8000000000000D-01  1.0574360885441D+00 -6.3838391564171D-01
    50  4.9000000000000D-01  9.9425221138430D-01 -7.3046263364384D-01
    51  5.0000000000000D-01  9.2981186454383D-01 -8.2067168767110D-01
    52  5.1000000000000D-01  8.6436666742938D-01 -9.0817711840322D-01
    53  5.2000000000000D-01  7.9816852537330D-01 -9.9214063858007D-01
    54  5.3000000000000D-01  7.3146847465874D-01 -1.0717283813563D+00
    55  5.4000000000000D-01  6.6451553537688D-01 -1.1461198624152D+00
    56  5.5000000000000D-01  5.9755557903632D-01 -1.2145170523958D+00
    57  5.6000000000000D-01  5.3083021782589D-01 -1.2761534524390D+00
    58  5.7000000000000D-01  4.6457572235482D-01 -1.3303030631940D+00
    59  5.8000000000000D-01  3.9902197455841D-01 -1.3762891365219D+00
    60  5.9000000000000D-01  3.3439146226363D-01 -1.4134925994127D+00
    61  6.0000000000000D-01  2.7089832165566D-01 -1.4413600413342D+00
    62  6.1000000000000D-01  2.0874743357874D-01 -1.4594111593407D+00
    63  6.2000000000000D-01  1.4813357923991D-01 -1.4672455597926D+00
    64  6.3000000000000D-01  8.9240660468649D-02 -1.4645488214372D+00
    65  6.4000000000000D-01  3.2240989221573D-02 -1.4510977317880D+00
    66  6.5000000000000D-01 -2.2705349490174D-02 -1.4267646172398D+00
    67  6.6000000000000D-01 -7.5451057622947D-02 -1.3915206969636D+00
    68  6.7000000000000D-01 -1.2586210402981D-01 -1.3454384013002D+00
    69  6.8000000000000D-01 -1.7381812187381D-01 -1.2886926070390D+00
    70  6.9000000000000D-01 -2.1921272174297D-01 -1.2215607543897D+00
    71  7.0000000000000D-01 -2.6195371934392D-01 -1.1444218235289D+00
    72  7.1000000000000D-01 -3.0196327732539D-01 -1.0577541622408D+00
    73  7.2000000000000D-01 -3.3917796146000D-01 -9.6213217009529D-01
    74  7.3000000000000D-01 -3.7354871208905D-01 -8.5822185869233D-01
    75  7.4000000000000D-01 -4.0504073240448D-01 -7.4677532160887D-01
    76  7.5000000000000D-01 -4.3363329579328D-01 -6.2862416150921D-01
    77  7.6000000000000D-01 -4.5931947510330D-01 -5.0467193542937D-01
    78  7.7000000000000D-01 -4.8210579729103D-01 -3.7588569214426D-01
    79  7.8000000000000D-01 -5.0201182747992D-01 -2.4328668771585D-01
    80  7.9000000000000D-01 -5.1906968698467D-01 -1.0794037660224D-01
    81  8.0000000000000D-01 -5.3332351033794D-01  2.9054214085128D-02
    82  8.1000000000000D-01 -5.4482884678402D-01  1.6657561059895D-01
    83  8.2000000000000D-01 -5.5365201207729D-01  3.0349139463087D-01
    84  8.3000000000000D-01 -5.5986939673498D-01  4.3866995105879D-01
    85  8.4000000000000D-01 -5.6356673714332D-01  5.7099232638199D-01
    86  8.5000000000000D-01 -5.6483835609822D-01  6.9936405991464D-01
    87  8.6000000000000D-01 -5.6378637947704D-01  8.2272684857409D-01
    88  8.7000000000000D-01 -5.6051993578341D-01  9.4006990661904D-01
    89  8.8000000000000D-01 -5.5515434528386D-01  1.0504408839791D+00
    90  8.9000000000000D-01 -5.4781030536268D-01  1.1529562108647D+00
    91  9.0000000000000D-01 -5.3861307856198D-01  1.2468107421246D+00
    92  9.1000000000000D-01 -5.2769168954898D-01  1.3312865822739D+00
    93  9.2000000000000D-01 -5.1517813696567D-01  1.4057609811721D+00
    94  9.3000000000000D-01 -5.0120662576993D-01  1.4697132008877D+00
    95  9.4000000000000D-01 -4.8591282527741D-01  1.5227302662311D+00
    96  9.5000000000000D-01 -4.6943315766386D-01  1.5645115246157D+00
    97  9.6000000000000D-01 -4.5190412119481D-01  1.5948719551839D+00
    98  9.7000000000000D-01 -4.3346165191933D-01  1.6137441822918D+00
    99  9.8000000000000D-01 -4.1424052700004D-01  1.6211791644457D+00
   100  9.9000000000000D-01 -3.9437381226888D-01  1.6173455461202D+00
   101  1.0000000000000D+00 -3.7399235600031D-01  1.6025276765186D+00
   102  1.0100000000000D+00 -3.5322433026779D-01  1.5771223165610D+00
   103  1.0200000000000D+00 -3.3219482064811D-01  1.5416340717706D+00
   104  1.0300000000000D+00 -3.1102546442441D-01  1.4966696052810D+00
   105  1.0400000000000D+00 -2.8983413684382D-01  1.4429307010159D+00
   106  1.0500000000000D+00 -2.6873468439804D-01  1.3812062624803D+00
   107  1.0600000000000D+00 -2.4783670358599D-01  1.3123633457487D+00
   108  1.0700000000000D+00 -2.2724536304313D-01  1.2373373397154D+00
   109  1.0800000000000D+00 -2.0706126649172D-01  1.1571214171598D+00
   110  1.0900000000000D+00 -1.8738035351418D-01  1.0727553908823D+00
   111  1.1000000000000D+00 -1.6829383477341D-01  9.8531411754038D-01
   112  1.1100000000000D+00 -1.4988815799531D-01  8.9589559837886D-01
   113  1.1200000000000D+00 -1.3224500071671D-01  8.0560893171256D-01
   114  1.1300000000000D+00 -1.1544128562855D-01  7.1556227440081D-01
   115  1.1400000000000D+00 -9.9549214185090D-02  6.2685097032630D-01
   116  1.1500000000000D+00 -8.4636314064193D-02  5.4054600407753D-01
   117  1.1600000000000D+00 -7.0765496028656D-02  4.5768293408760D-01
   118  1.1700000000000D+00 -5.7995116140878D-02  3.7925146973636D-01
   119  1.1800000000000D+00 -4.6379038344779D-02  3.0618582319416D-01
   120  1.1900000000000D+00 -3.5966686026491D-02  2.3935552773000D-01
   121  1.2000000000000D+00 -2.6803112817844D-02  1.7955870596898D-01
   122  1.2100000000000D+00 -1.8929042734639D-02  1.2751524804150D-01
   123  1.2200000000000D+00 -1.2382114335724D-02  8.3856256819939D-02
   124  1.2300000000000D+00 -7.1903868339579D-03  4.9058946761573D-02
   125  1.2400000000000D+00 -3.3583716013935D-03  2.3325746930060D-02
   126  1.2500000000000D+00 -1.0066719949158D-03  7.6267801635547D-03
   127  1.2600000000000D+00 -3.4371494335322D-05  1.1420437748523D-03
   128  1.2700000000000D+00  8.8939048902904D-05 -1.8567278264069D-04
   129  1.2800000000000D+00 -1.9403503230070D-05  6.2467054915951D-05
   130  1.2900000000000D+00 -1.1640551488456D-05  4.2656575969576D-05
   131  1.3000000000000D+00  5.3551339865368D-06 -1.5070346893533D-05
   132  1.3100000000000D+00 -4.7069111790978D-08 -8.4385897426983D-07
   133  1.3200000000000D+00 -6.2301960434170D-08 -1.1169547592155D-06
   134  1.3300000000000D+00  0.0000000000000D+00  0.0000000000000D+00
   135  1.3400000000000D+00  0.0000000000000D+00  0.0000000000000D+00
   136  1.3500000000000D+00  0.0000000000000D+00  0.0000000000000D+00
   137  1.3600000000000D+00  0.0000000000000D+00  0.0000000000000D+00
   138  1.3700000000000D+00  0.0000000000000D+00  0.0000000000000D+00
   139  1.3800000000000D+00  0.0000000000000D+00  0.0000000000000D+00
   140  1.3900000000000D+00  0.0000000000000D+00  0.0000000000000D+00
   141  1.4000000000000D+00  0.0000000000000D+00  0.0000000000000D+00
   142  1.4100000000000D+00  0.0000000000000D+00  0.0000000000000D+00
   143  1.4200000000000D+00  0.0000000000000D+00  0.0000000000000D+00
   144  1.4300000000000D+00  0.0000000000000D+00  0.0000000000000D+00
   145  1.4400000000000D+00  0.0000000000000D+00  0.0000000000000D+00
   146  1.4500000000000D+00  0.0000000000000D+00  0.0000000000000D+00
   147  1.4600000000000D+00  0.0000000000000D+00  0.0000000000000D+00
   148  1.4700000000000D+00  0.0000000000000D+00  0.0000000000000D+00
   149  1.4800000000000D+00  0.0000000000000D+00  0.0000000000000D+00
   150  1.4900000000000D+00  0.0000000000000D+00  0.0000000000000D+00
   151  1.5000000000000D+00  0.0000000000000D+00  0.0000000000000D+00
   152  1.5100000000000D+00  0.0000000000000D+00  0.0000000000000D+00
   153  1.5200000000000D+00  0.0000000000000D+00  0.0000000000000D+00
   154  1.5300000000000D+00  0.0000000000000D+00  0.0000000000000D+00
   155  1.5400000000000D+00  0.0000000000000D+00  0.0000000000000D+00
   156  1.5500000000000D+00  0.0000000000000D+00  0.0000000000000D+00
   157  1.5600000000000D+00  0.0000000000000D+00  0.0000000000000D+00
   158  1.5700000000000D+00  0.0000000000000D+00  0.0000000000000D+00
   159  1.5800000000000D+00  0.0000000000000D+00  0.0000000000000D+00
   160  1.5900000000000D+00  0.0000000000000D+00  0.0000000000000D+00
   161  1.6000000000000D+00  0.0000000000000D+00  0.0000000000000D+00
   162  1.6100000000000D+00  0.0000000000000D+00  0.0000000000000D+00
   163  1.6200000000000D+00  0.0000000000000D+00  0.0000000000000D+00
   164  1.6300000000000D+00  0.0000000000000D+00  0.0000000000000D+00
   165  1.6400000000000D+00  0.0000000000000D+00  0.0000000000000D+00
   166  1.6500000000000D+00  0.0000000000000D+00  0.0000000000000D+00
   167  1.6600000000000D+00  0.0000000000000D+00  0.0000000000000D+00
   168  1.6700000000000D+00  0.0000000000000D+00  0.0000000000000D+00
   169  1.6800000000000D+00  0.0000000000000D+00  0.0000000000000D+00
   170  1.6900000000000D+00  0.0000000000000D+00  0.0000000000000D+00
   171  1.7000000000000D+00  0.0000000000000D+00  0.0000000000000D+00
   172  1.7100000000000D+00  0.0000000000000D+00  0.0000000000000D+00
   173  1.7200000000000D+00  0.0000000000000D+00  0.0000000000000D+00
   174  1.7300000000000D+00  0.0000000000000D+00  0.0000000000000D+00
   175  1.7400000000000D+00  0.0000000000000D+00  0.0000000000000D+00
   176  1.7500000000000D+00  0.0000000000000D+00  0.0000000000000D+00
   177  1.7600000000000D+00  0.0000000000000D+00  0.0000000000000D+00
   178  1.7700000000000D+00  0.0000000000000D+00  0.0000000000000D+00
   179  1.7800000000000D+00  0.0000000000000D+00  0.0000000000000D+00
   180  1.7900000000000D+00  0.0000000000000D+00  0.0000000000000D+00
   181  1.8000000000000D+00  0.0000000000000D+00  0.0000000000000D+00
   182  1.8100000000000D+00  0.0000000000000D+00  0.0000000000000D+00
   183  1.8200000000000D+00  0.0000000000000D+00  0.0000000000000D+00
   184  1.8300000000000D+00  0.0000000000000D+00  0.0000000000000D+00
   185  1.8400000000000D+00  0.0000000000000D+00  0.0000000000000D+00
   186  1.8500000000000D+00  0.0000000000000D+00  0.0000000000000D+00
   187  1.8600000000000D+00  0.0000000000000D+00  0.0000000000000D+00
   188  1.8700000000000D+00  0.0000000000000D+00  0.0000000000000D+00
   189  1.8800000000000D+00  0.0000000000000D+00  0.0000000000000D+00
   190  1.8900000000000D+00  0.0000000000000D+00  0.0000000000000D+00
   191  1.9000000000000D+00  0.0000000000000D+00  0.0000000000000D+00
   192  1.9100000000000D+00  0.0000000000000D+00  0.0000000000000D+00
   193  1.9200000000000D+00  0.0000000000000D+00  0.0000000000000D+00
   194  1.9300000000000D+00  0.0000000000000D+00  0.0000000000000D+00
   195  1.9400000000000D+00  0.0000000000000D+00  0.0000000000000D+00
   196  1.9500000000000D+00  0.0000000000000D+00  0.0000000000000D+00
   197  1.9600000000000D+00  0.0000000000000D+00  0.0000000000000D+00
   198  1.9700000000000D+00  0.0000000000000D+00  0.0000000000000D+00
   199  1.9800000000000D+00  0.0000000000000D+00  0.0000000000000D+00
   200  1.9900000000000D+00  0.0000000000000D+00  0.0000000000000D+00
   201  2.0000000000000D+00  0.0000000000000D+00  0.0000000000000D+00
   202  2.0100000000000D+00  0.0000000000000D+00  0.0000000000000D+00
   203  2.0200000000000D+00  0.0000000000000D+00  0.0000000000000D+00
   204  2.0300000000000D+00  0.0000000000000D+00  0.0000000000000D+00
   205  2.0400000000000D+00  0.0000000000000D+00  0.0000000000000D+00
   206  2.0500000000000D+00  0.0000000000000D+00  0.0000000000000D+00
   207  2.0600000000000D+00  0.0000000000000D+00  0.0000000000000D+00
   208  2.0700000000000D+00  0.0000000000000D+00  0.0000000000000D+00
   209  2.0800000000000D+00  0.0000000000000D+00  0.0000000000000D+00
   210  2.0900000000000D+00  0.0000000000000D+00  0.0000000000000D+00
   211  2.1000000000000D+00  0.0000000000000D+00  0.0000000000000D+00
   212  2.1100000000000D+00  0.0000000000000D+00  0.0000000000000D+00
   213  2.1200000000000D+00  0.0000000000000D+00  0.0000000000000D+00
   214  2.1300000000000D+00  0.0000000000000D+00  0.0000000000000D+00
   215  2.1400000000000D+00  0.0000000000000D+00  0.0000000000000D+00
   216  2.1500000000000D+00  0.0000000000000D+00  0.0000000000000D+00
   217  2.1600000000000D+00  0.0000000000000D+00  0.0000000000000D+00
   218  2.1700000000000D+00  0.0000000000000D+00  0.0000000000000D+00
   219  2.1800000000000D+00  0.0000000000000D+00  0.0000000000000D+00
   220  2.1900000000000D+00  0.0000000000000D+00  0.0000000000000D+00
   221  2.2000000000000D+00  0.0000000000000D+00  0.0000000000000D+00
   222  2.2100000000000D+00  0.0000000000000D+00  0.0000000000000D+00
   223  2.2200000000000D+00  0.0000000000000D+00  0.0000000000000D+00
   224  2.2300000000000D+00  0.0000000000000D+00  0.0000000000000D+00
   225  2.2400000000000D+00  0.0000000000000D+00  0.0000000000000D+00
   226  2.2500000000000D+00  0.0000000000000D+00  0.0000000000000D+00
   227  2.2600000000000D+00  0.0000000000000D+00  0.0000000000000D+00
   228  2.2700000000000D+00  0.0000000000000D+00  0.0000000000000D+00
   229  2.2800000000000D+00  0.0000000000000D+00  0.0000000000000D+00
   230  2.2900000000000D+00  0.0000000000000D+00  0.0000000000000D+00
   231  2.3000000000000D+00  0.0000000000000D+00  0.0000000000000D+00
   232  2.3100000000000D+00  0.0000000000000D+00  0.0000000000000D+00
   233  2.3200000000000D+00  0.0000000000000D+00  0.0000000000000D+00
   234  2.3300000000000D+00  0.0000000000000D+00  0.0000000000000D+00
   235  2.3400000000000D+00  0.0000000000000D+00  0.0000000000000D+00
   236  2.3500000000000D+00  0.0000000000000D+00  0.0000000000000D+00
   237  2.3600000000000D+00  0.0000000000000D+00  0.0000000000000D+00
   238  2.3700000000000D+00  0.0000000000000D+00  0.0000000000000D+00
   239  2.3800000000000D+00  0.0000000000000D+00  0.0000000000000D+00
   240  2.3900000000000D+00  0.0000000000000D+00  0.0000000000000D+00
   241  2.4000000000000D+00  0.0000000000000D+00  0.0000000000000D+00
   242  2.4100000000000D+00  0.0000000000000D+00  0.0000000000000D+00
   243  2.4200000000000D+00  0.0000000000000D+00  0.0000000000000D+00
   244  2.4300000000000D+00  0.0000000000000D+00  0.0000000000000D+00
   245  2.4400000000000D+00  0.0000000000000D+00  0.0000000000000D+00
   246  2.4500000000000D+00  0.0000000000000D+00  0.0000000000000D+00
   247  2.4600000000000D+00  0.0000000000000D+00  0.0000000000000D+00
   248  2.4700000000000D+00  0.0000000000000D+00  0.0000000000000D+00
   249  2.4800000000000D+00  0.0000000000000D+00  0.0000000000000D+00
   250  2.4900000000000D+00  0.0000000000000D+00  0.0000000000000D+00
   251  2.5000000000000D+00  0.0000000000000D+00  0.0000000000000D+00
   252  2.5100000000000D+00  0.0000000000000D+00  0.0000000000000D+00
   253  2.5200000000000D+00  0.0000000000000D+00  0.0000000000000D+00
   254  2.5300000000000D+00  0.0000000000000D+00  0.0000000000000D+00
   255  2.5400000000000D+00  0.0000000000000D+00  0.0000000000000D+00
   256  2.5500000000000D+00  0.0000000000000D+00  0.0000000000000D+00
   257  2.5600000000000D+00  0.0000000000000D+00  0.0000000000000D+00
   258  2.5700000000000D+00  0.0000000000000D+00  0.0000000000000D+00
   259  2.5800000000000D+00  0.0000000000000D+00  0.0000000000000D+00
   260  2.5900000000000D+00  0.0000000000000D+00  0.0000000000000D+00
   261  2.6000000000000D+00  0.0000000000000D+00  0.0000000000000D+00
   262  2.6100000000000D+00  0.0000000000000D+00  0.0000000000000D+00
   263  2.6200000000000D+00  0.0000000000000D+00  0.0000000000000D+00
   264  2.6300000000000D+00  0.0000000000000D+00  0.0000000000000D+00
   265  2.6400000000000D+00  0.0000000000000D+00  0.0000000000000D+00
   266  2.6500000000000D+00  0.0000000000000D+00  0.0000000000000D+00
   267  2.6600000000000D+00  0.0000000000000D+00  0.0000000000000D+00
   268  2.6700000000000D+00  0.0000000000000D+00  0.0000000000000D+00
   269  2.6800000000000D+00  0.0000000000000D+00  0.0000000000000D+00
   270  2.6900000000000D+00  0.0000000000000D+00  0.0000000000000D+00
   271  2.7000000000000D+00  0.0000000000000D+00  0.0000000000000D+00
   272  2.7100000000000D+00  0.0000000000000D+00  0.0000000000000D+00
   273  2.7200000000000D+00  0.0000000000000D+00  0.0000000000000D+00
   274  2.7300000000000D+00  0.0000000000000D+00  0.0000000000000D+00
   275  2.7400000000000D+00  0.0000000000000D+00  0.0000000000000D+00
   276  2.7500000000000D+00  0.0000000000000D+00  0.0000000000000D+00
   277  2.7600000000000D+00  0.0000000000000D+00  0.0000000000000D+00
   278  2.7700000000000D+00  0.0000000000000D+00  0.0000000000000D+00
   279  2.7800000000000D+00  0.0000000000000D+00  0.0000000000000D+00
   280  2.7900000000000D+00  0.0000000000000D+00  0.0000000000000D+00
   281  2.8000000000000D+00  0.0000000000000D+00  0.0000000000000D+00
   282  2.8100000000000D+00  0.0000000000000D+00  0.0000000000000D+00
   283  2.8200000000000D+00  0.0000000000000D+00  0.0000000000000D+00
   284  2.8300000000000D+00  0.0000000000000D+00  0.0000000000000D+00
   285  2.8400000000000D+00  0.0000000000000D+00  0.0000000000000D+00
   286  2.8500000000000D+00  0.0000000000000D+00  0.0000000000000D+00
   287  2.8600000000000D+00  0.0000000000000D+00  0.0000000000000D+00
   288  2.8700000000000D+00  0.0000000000000D+00  0.0000000000000D+00
   289  2.8800000000000D+00  0.0000000000000D+00  0.0000000000000D+00
   290  2.8900000000000D+00  0.0000000000000D+00  0.0000000000000D+00
   291  2.9000000000000D+00  0.0000000000000D+00  0.0000000000000D+00
   292  2.9100000000000D+00  0.0000000000000D+00  0.0000000000000D+00
   293  2.9200000000000D+00  0.0000000000000D+00  0.0000000000000D+00
   294  2.9300000000000D+00  0.0000000000000D+00  0.0000000000000D+00
   295  2.9400000000000D+00  0.0000000000000D+00  0.0000000000000D+00
   296  2.9500000000000D+00  0.0000000000000D+00  0.0000000000000D+00
   297  2.9600000000000D+00  0.0000000000000D+00  0.0000000000000D+00
   298  2.9700000000000D+00  0.0000000000000D+00  0.0000000000000D+00
   299  2.9800000000000D+00  0.0000000000000D+00  0.0000000000000D+00
   300  2.9900000000000D+00  0.0000000000000D+00  0.0000000000000D+00
   301  3.0000000000000D+00  0.0000000000000D+00  0.0000000000000D+00
   302  3.0100000000000D+00  0.0000000000000D+00  0.0000000000000D+00
   303  3.0200000000000D+00  0.0000000000000D+00  0.0000000000000D+00
   304  3.0300000000000D+00  0.0000000000000D+00  0.0000000000000D+00
   305  3.0400000000000D+00  0.0000000000000D+00  0.0000000000000D+00
   306  3.0500000000000D+00  0.0000000000000D+00  0.0000000000000D+00
   307  3.0600000000000D+00  0.0000000000000D+00  0.0000000000000D+00
   308  3.0700000000000D+00  0.0000000000000D+00  0.0000000000000D+00
   309  3.0800000000000D+00  0.0000000000000D+00  0.0000000000000D+00
   310  3.0900000000000D+00  0.0000000000000D+00  0.0000000000000D+00
   311  3.1000000000000D+00  0.0000000000000D+00  0.0000000000000D+00
   312  3.1100000000000D+00  0.0000000000000D+00  0.0000000000000D+00
   313  3.1200000000000D+00  0.0000000000000D+00  0.0000000000000D+00
   314  3.1300000000000D+00  0.0000000000000D+00  0.0000000000000D+00
   315  3.1400000000000D+00  0.0000000000000D+00  0.0000000000000D+00
   316  3.1500000000000D+00  0.0000000000000D+00  0.0000000000000D+00
   317  3.1600000000000D+00  0.0000000000000D+00  0.0000000000000D+00
   318  3.1700000000000D+00  0.0000000000000D+00  0.0000000000000D+00
   319  3.1800000000000D+00  0.0000000000000D+00  0.0000000000000D+00
   320  3.1900000000000D+00  0.0000000000000D+00  0.0000000000000D+00
   321  3.2000000000000D+00  0.0000000000000D+00  0.0000000000000D+00
   322  3.2100000000000D+00  0.0000000000000D+00  0.0000000000000D+00
   323  3.2200000000000D+00  0.0000000000000D+00  0.0000000000000D+00
   324  3.2300000000000D+00  0.0000000000000D+00  0.0000000000000D+00
   325  3.2400000000000D+00  0.0000000000000D+00  0.0000000000000D+00
   326  3.2500000000000D+00  0.0000000000000D+00  0.0000000000000D+00
   327  3.2600000000000D+00  0.0000000000000D+00  0.0000000000000D+00
   328  3.2700000000000D+00  0.0000000000000D+00  0.0000000000000D+00
   329  3.2800000000000D+00  0.0000000000000D+00  0.0000000000000D+00
   330  3.2900000000000D+00  0.0000000000000D+00  0.0000000000000D+00
   331  3.3000000000000D+00  0.0000000000000D+00  0.0000000000000D+00
   332  3.3100000000000D+00  0.0000000000000D+00  0.0000000000000D+00
   333  3.3200000000000D+00  0.0000000000000D+00  0.0000000000000D+00
   334  3.3300000000000D+00  0.0000000000000D+00  0.0000000000000D+00
   335  3.3400000000000D+00  0.0000000000000D+00  0.0000000000000D+00
   336  3.3500000000000D+00  0.0000000000000D+00  0.0000000000000D+00
   337  3.3600000000000D+00  0.0000000000000D+00  0.0000000000000D+00
   338  3.3700000000000D+00  0.0000000000000D+00  0.0000000000000D+00
   339  3.3800000000000D+00  0.0000000000000D+00  0.0000000000000D+00
   340  3.3900000000000D+00  0.0000000000000D+00  0.0000000000000D+00
   341  3.4000000000000D+00  0.0000000000000D+00  0.0000000000000D+00
   342  3.4100000000000D+00  0.0000000000000D+00  0.0000000000000D+00
   343  3.4200000000000D+00  0.0000000000000D+00  0.0000000000000D+00
   344  3.4300000000000D+00  0.0000000000000D+00  0.0000000000000D+00
   345  3.4400000000000D+00  0.0000000000000D+00  0.0000000000000D+00
   346  3.4500000000000D+00  0.0000000000000D+00  0.0000000000000D+00
   347  3.4600000000000D+00  0.0000000000000D+00  0.0000000000000D+00
   348  3.4700000000000D+00  0.0000000000000D+00  0.0000000000000D+00
   349  3.4800000000000D+00  0.0000000000000D+00  0.0000000000000D+00
   350  3.4900000000000D+00  0.0000000000000D+00  0.0000000000000D+00
   351  3.5000000000000D+00  0.0000000000000D+00  0.0000000000000D+00
   352  3.5100000000000D+00  0.0000000000000D+00  0.0000000000000D+00
   353  3.5200000000000D+00  0.0000000000000D+00  0.0000000000000D+00
   354  3.5300000000000D+00  0.0000000000000D+00  0.0000000000000D+00
   355  3.5400000000000D+00  0.0000000000000D+00  0.0000000000000D+00
   356  3.5500000000000D+00  0.0000000000000D+00  0.0000000000000D+00
   357  3.5600000000000D+00  0.0000000000000D+00  0.0000000000000D+00
   358  3.5700000000000D+00  0.0000000000000D+00  0.0000000000000D+00
   359  3.5800000000000D+00  0.0000000000000D+00  0.0000000000000D+00
   360  3.5900000000000D+00  0.0000000000000D+00  0.0000000000000D+00
   361  3.6000000000000D+00  0.0000000000000D+00  0.0000000000000D+00
   362  3.6100000000000D+00  0.0000000000000D+00  0.0000000000000D+00
   363  3.6200000000000D+00  0.0000000000000D+00  0.0000000000000D+00
   364  3.6300000000000D+00  0.0000000000000D+00  0.0000000000000D+00
   365  3.6400000000000D+00  0.0000000000000D+00  0.0000000000000D+00
   366  3.6500000000000D+00  0.0000000000000D+00  0.0000000000000D+00
   367  3.6600000000000D+00  0.0000000000000D+00  0.0000000000000D+00
   368  3.6700000000000D+00  0.0000000000000D+00  0.0000000000000D+00
   369  3.6800000000000D+00  0.0000000000000D+00  0.0000000000000D+00
   370  3.6900000000000D+00  0.0000000000000D+00  0.0000000000000D+00
   371  3.7000000000000D+00  0.0000000000000D+00  0.0000000000000D+00
   372  3.7100000000000D+00  0.0000000000000D+00  0.0000000000000D+00
   373  3.7200000000000D+00  0.0000000000000D+00  0.0000000000000D+00
   374  3.7300000000000D+00  0.0000000000000D+00  0.0000000000000D+00
   375  3.7400000000000D+00  0.0000000000000D+00  0.0000000000000D+00
   376  3.7500000000000D+00  0.0000000000000D+00  0.0000000000000D+00
   377  3.7600000000000D+00  0.0000000000000D+00  0.0000000000000D+00
   378  3.7700000000000D+00  0.0000000000000D+00  0.0000000000000D+00
   379  3.7800000000000D+00  0.0000000000000D+00  0.0000000000000D+00
   380  3.7900000000000D+00  0.0000000000000D+00  0.0000000000000D+00
   381  3.8000000000000D+00  0.0000000000000D+00  0.0000000000000D+00
   382  3.8100000000000D+00  0.0000000000000D+00  0.0000000000000D+00
   383  3.8200000000000D+00  0.0000000000000D+00  0.0000000000000D+00
   384  3.8300000000000D+00  0.0000000000000D+00  0.0000000000000D+00
   385  3.8400000000000D+00  0.0000000000000D+00  0.0000000000000D+00
   386  3.8500000000000D+00  0.0000000000000D+00  0.0000000000000D+00
   387  3.8600000000000D+00  0.0000000000000D+00  0.0000000000000D+00
   388  3.8700000000000D+00  0.0000000000000D+00  0.0000000000000D+00
   389  3.8800000000000D+00  0.0000000000000D+00  0.0000000000000D+00
   390  3.8900000000000D+00  0.0000000000000D+00  0.0000000000000D+00
   391  3.9000000000000D+00  0.0000000000000D+00  0.0000000000000D+00
   392  3.9100000000000D+00  0.0000000000000D+00  0.0000000000000D+00
   393  3.9200000000000D+00  0.0000000000000D+00  0.0000000000000D+00
   394  3.9300000000000D+00  0.0000000000000D+00  0.0000000000000D+00
   395  3.9400000000000D+00  0.0000000000000D+00  0.0000000000000D+00
   396  3.9500000000000D+00  0.0000000000000D+00  0.0000000000000D+00
   397  3.9600000000000D+00  0.0000000000000D+00  0.0000000000000D+00
   398  3.9700000000000D+00  0.0000000000000D+00  0.0000000000000D+00
   399  3.9800000000000D+00  0.0000000000000D+00  0.0000000000000D+00
   400  3.9900000000000D+00  0.0000000000000D+00  0.0000000000000D+00
   401  4.0000000000000D+00  0.0000000000000D+00  0.0000000000000D+00
   402  4.0100000000000D+00  0.0000000000000D+00  0.0000000000000D+00
   403  4.0200000000000D+00  0.0000000000000D+00  0.0000000000000D+00
   404  4.0300000000000D+00  0.0000000000000D+00  0.0000000000000D+00
   405  4.0400000000000D+00  0.0000000000000D+00  0.0000000000000D+00
   406  4.0500000000000D+00  0.0000000000000D+00  0.0000000000000D+00
   407  4.0600000000000D+00  0.0000000000000D+00  0.0000000000000D+00
   408  4.0700000000000D+00  0.0000000000000D+00  0.0000000000000D+00
   409  4.0800000000000D+00  0.0000000000000D+00  0.0000000000000D+00
   410  4.0900000000000D+00  0.0000000000000D+00  0.0000000000000D+00
   411  4.1000000000000D+00  0.0000000000000D+00  0.0000000000000D+00
   412  4.1100000000000D+00  0.0000000000000D+00  0.0000000000000D+00
   413  4.1200000000000D+00  0.0000000000000D+00  0.0000000000000D+00
   414  4.1300000000000D+00  0.0000000000000D+00  0.0000000000000D+00
   415  4.1400000000000D+00  0.0000000000000D+00  0.0000000000000D+00
   416  4.1500000000000D+00  0.0000000000000D+00  0.0000000000000D+00
   417  4.1600000000000D+00  0.0000000000000D+00  0.0000000000000D+00
   418  4.1700000000000D+00  0.0000000000000D+00  0.0000000000000D+00
   419  4.1800000000000D+00  0.0000000000000D+00  0.0000000000000D+00
   420  4.1900000000000D+00  0.0000000000000D+00  0.0000000000000D+00
   421  4.2000000000000D+00  0.0000000000000D+00  0.0000000000000D+00
   422  4.2100000000000D+00  0.0000000000000D+00  0.0000000000000D+00