Co    ONCVPSP-3.3.0  r_core=   1.20310   1.20310   1.56413
     27.0000     17.0000      220117    zatom,zion,pspd
     8      11   2     4   600     0    pspcod,pspxc,lmax,lloc,mmax,r2well
  5.99000000  0.00000000  0.00000000    rchrg fchrg qchrg
     2     2     2     0     0    nproj
     1     1           extension_switch
   0                         8.3673615910486D+00 -3.8435230117130D-01
     1  0.0000000000000D+00  3.0016777952113D-10  4.9411874036842D-09
     2  1.0000000000000D-02  1.0426897395024D-01  3.5729978322724D-02
     3  2.0000000000000D-02  2.0818949654259D-01  7.1422906986530D-02
     4  3.0000000000000D-02  3.1141428851398D-01  1.0703839883176D-01
     5  4.0000000000000D-02  4.1359841457285D-01  1.4252946879957D-01
     6  5.0000000000000D-02  5.1440045476070D-01  1.7783942645665D-01
     7  6.0000000000000D-02  6.1348367484542D-01  2.1289899472015D-01
     8  7.0000000000000D-02  7.1051719506318D-01  2.4762372428960D-01
     9  8.0000000000000D-02  8.0517715622524D-01  2.8191176835158D-01
    10  9.0000000000000D-02  8.9714788184180D-01  3.1564207608218D-01
    11  1.0000000000000D-01  9.8612303449426D-01  3.4867305642016D-01
    12  1.1000000000000D-01  1.0718067642169D+00  3.8084175562290D-01
    13  1.2000000000000D-01  1.1539148461407D+00  4.1196358336477D-01
    14  1.3000000000000D-01  1.2321758041131D+00  4.4183261272171D-01
    15  1.4000000000000D-01  1.3063320164534D+00  4.7022246944562D-01
    16  1.5000000000000D-01  1.3761407994388D+00  4.9688781561671D-01
    17  1.6000000000000D-01  1.4413754635635D+00  5.2156642222253D-01
    18  1.7000000000000D-01  1.5018263370715D+00  5.4398181461166D-01
    19  1.8000000000000D-01  1.5573017507613D+00  5.6384646426539D-01
    20  1.9000000000000D-01  1.6076289775925D+00  5.8086549008541D-01
    21  2.0000000000000D-01  1.6526551202178D+00  5.9474082256854D-01
    22  2.1000000000000D-01  1.6922479392216D+00  6.0517577498408D-01
    23  2.2000000000000D-01  1.7262966145799D+00  6.1187995713564D-01
    24  2.3000000000000D-01  1.7547124326783D+00  6.1457445961489D-01
    25  2.4000000000000D-01  1.7774293911454D+00  6.1299722976963D-01
    26  2.5000000000000D-01  1.7944047137740D+00  6.0690855502883D-01
    27  2.6000000000000D-01  1.8056192679418D+00  5.9609656485311D-01
    28  2.7000000000000D-01  1.8110778771805D+00  5.8038265949921D-01
    29  2.8000000000000D-01  1.8108095219101D+00  5.5962677206610D-01
    30  2.9000000000000D-01  1.8048674218356D+00  5.3373236998110D-01
    31  3.0000000000000D-01  1.7933289941018D+00  5.0265110321425D-01
    32  3.1000000000000D-01  1.7762956820215D+00  4.6638700909098D-01
    33  3.2000000000000D-01  1.7538926500187D+00  4.2500018759183D-01
    34  3.3000000000000D-01  1.7262683413653D+00  3.7860986645585D-01
    35  3.4000000000000D-01  1.6935938963254D+00  3.2739678218566D-01
    36  3.5000000000000D-01  1.6560624294435D+00  2.7160481111442D-01
    37  3.6000000000000D-01  1.6138881659185D+00  2.1154179394723D-01
    38  3.7000000000000D-01  1.5673054382746D+00  1.4757950751639D-01
    39  3.8000000000000D-01  1.5165675458620D+00  8.0152748766311D-02
    40  3.9000000000000D-01  1.4619454810802D+00  9.7575080623399D-03
    41  4.0000000000000D-01  1.4037265275986D+00 -6.3051778362048D-02
    42  4.1000000000000D-01  1.3422127372354D+00 -1.3766589381043D-01
    43  4.2000000000000D-01  1.2777192935238D+00 -2.1342540789040D-01
    44  4.3000000000000D-01  1.2105727713425D+00 -2.8962611456685D-01
    45  4.4000000000000D-01  1.1411093032715D+00 -3.6552529793662D-01
    46  4.5000000000000D-01  1.0696726645628D+00 -4.4034876896014D-01
    47  4.6000000000000D-01  9.9661228975152D-01 -5.1329860367245D-01
    48  4.7000000000000D-01  9.2228123496830D-01 -5.8356150136543D-01
    49  4.8000000000000D-01  8.4703410093048D-01 -6.5031767006797D-01
    50  4.9000000000000D-01  7.7122493237024D-01 -7.1275013653510D-01
    51  5.0000000000000D-01  6.9520511029171D-01 -7.7005436905413D-01
    52  5.1000000000000D-01  6.1932125392058D-01 -8.2144809384355D-01
    53  5.2000000000000D-01  5.4391314951087D-01 -8.6618117978958D-01
    54  5.3000000000000D-01  4.6931172329334D-01 -9.0354546186200D-01
    55  5.4000000000000D-01  3.9583707578414D-01 -9.3288437086675D-01
    56  5.5000000000000D-01  3.2379659441441D-01 -9.5360223630477D-01
    57  5.6000000000000D-01  2.5348316099116D-01 -9.6517313006861D-01
    58  5.7000000000000D-01  1.8517346985750D-01 -9.6714912153562D-01
    59  5.8000000000000D-01  1.1912647178671D-01 -9.5916781933307D-01
    60  5.9000000000000D-01  5.5581957631318D-02 -9.4095908158243D-01
    61  6.0000000000000D-01 -5.2407054461220D-03 -9.1235078479667D-01
    62  6.1000000000000D-01 -6.3143673686489D-02 -8.7327355163116D-01
    63  6.2000000000000D-01 -1.1795155242756D-01 -8.2376434936031D-01
    64  6.3000000000000D-01 -1.6951213945906D-01 -7.6396888409571D-01
    65  6.4000000000000D-01 -2.1769697947830D-01 -6.9414273015908D-01
    66  6.5000000000000D-01 -2.6240172495694D-01 -6.1465114968313D-01
    67  6.6000000000000D-01 -3.0354630066605D-01 -5.2596757400513D-01
    68  6.7000000000000D-01 -3.4107487110351D-01 -4.2867073567128D-01
    69  6.8000000000000D-01 -3.7495561210485D-01 -3.2344045769606D-01
    70  6.9000000000000D-01 -4.0518028995511D-01 -2.1105212473306D-01
    71  7.0000000000000D-01 -4.3176365333820D-01 -9.2369878838452D-02
    72  7.1000000000000D-01 -4.5474264544696D-01  3.1661399615339D-02
    73  7.2000000000000D-01 -4.7417544548801D-01  1.6002524800473D-01
    74  7.3000000000000D-01 -4.9014035063645D-01  2.9164382003667D-01
    75  7.4000000000000D-01 -5.0273451120437D-01  4.2538901674506D-01
    76  7.5000000000000D-01 -5.1207253334965D-01  5.6009442544825D-01
    77  7.6000000000000D-01 -5.1828496506581D-01  6.9456792920393D-01
    78  7.7000000000000D-01 -5.2151668241900D-01  8.2760483801914D-01
    79  7.8000000000000D-01 -5.2192519403138D-01  9.5800138359054D-01
    80  7.9000000000000D-01 -5.1967888263135D-01  1.0845684118653D+00
    81  8.0000000000000D-01 -5.1495520308813D-01  1.2061451023623D+00
    82  8.1000000000000D-01 -5.0793885671159D-01  1.3216125400882D+00
    83  8.2000000000000D-01 -4.9881996172135D-01  1.4299069650917D+00
    84  8.3000000000000D-01 -4.8779223966883D-01  1.5300325262902D+00
    85  8.4000000000000D-01 -4.7505123723096D-01  1.6210733701621D+00
    86  8.5000000000000D-01 -4.6079260218838D-01  1.7022049012400D+00
    87  8.6000000000000D-01 -4.4521043156010D-01  1.7727040599848D+00
    88  8.7000000000000D-01 -4.2849570879955D-01  1.8319584744996D+00
    89  8.8000000000000D-01 -4.1083484567745D-01  1.8794743555315D+00
    90  8.9000000000000D-01 -3.9240834299874D-01  1.9148830191582D+00
    91  9.0000000000000D-01 -3.7338958264415D-01  1.9379459382889D+00
    92  9.1000000000000D-01 -3.5394376161089D-01  1.9485582424137D+00
    93  9.2000000000000D-01 -3.3422697677585D-01  1.9467506046868D+00
    94  9.3000000000000D-01 -3.1438546704334D-01  1.9326894761644D+00
    95  9.4000000000000D-01 -2.9455501739440D-01  1.9066756485754D+00
    96  9.5000000000000D-01 -2.7486052715498D-01  1.8691411490841D+00
    97  9.6000000000000D-01 -2.5541574257410D-01  1.8206444928235D+00
    98  9.7000000000000D-01 -2.3632315158358D-01  1.7618643411906D+00
    99  9.8000000000000D-01 -2.1767403641102D-01  1.6935916358719D+00
   100  9.9000000000000D-01 -1.9954867760690D-01  1.6167202995914D+00
   101  1.0000000000000D+00 -1.8201670102106D-01  1.5322366146945D+00
   102  1.0100000000000D+00 -1.6513755731182D-01  1.4412074099737D+00
   103  1.0200000000000D+00 -1.4896112184306D-01  1.3447672031243D+00
   104  1.0300000000000D+00 -1.3352840120969D-01  1.2441044619685D+00
   105  1.0400000000000D+00 -1.1887233122911D-01  1.1404471611160D+00
   106  1.0500000000000D+00 -1.0501865003548D-01  1.0350478220888D+00
   107  1.0600000000000D+00 -9.1986828993996D-02  9.2916823348251D-01
   108  1.0700000000000D+00 -7.9791043348759D-02  8.2406405480265D-01
   109  1.0800000000000D+00 -6.8441164118067D-02  7.2096951069424D-01
   110  1.0900000000000D+00 -5.7943752509419D-02  6.2108238353097D-01
   111  1.1000000000000D+00 -4.8303038220714D-02  5.2554951007878D-01
   112  1.1100000000000D+00 -3.9521863207514D-02  4.3545298459041D-01
   113  1.1200000000000D+00 -3.1602573177722D-02  3.5179726206896D-01
   114  1.1300000000000D+00 -2.4547839801206D-02  2.7549734673901D-01
   115  1.1400000000000D+00 -1.8361397896796D-02  2.0736823590043D-01
   116  1.1500000000000D+00 -1.3048682657801D-02  1.4811578007733D-01
   117  1.1600000000000D+00 -8.6173540268423D-03  9.8329097096756D-02
   118  1.1700000000000D+00 -5.0795324054539D-03  5.8497350853038D-02
   119  1.1800000000000D+00 -2.4328696497636D-03  2.8755619118563D-02
   120  1.1900000000000D+00 -7.3552765730361D-04  9.8940583679227D-03
   121  1.2000000000000D+00  1.0739269109976D-05  1.7487193259405D-03
   122  1.2100000000000D+00  9.4870288439322D-05 -1.1620573032850D-04
   123  1.2200000000000D+00 -1.5447819009861D-05  4.8176238259451D-05
   124  1.2300000000000D+00 -9.3980299674892D-06  3.6594416657776D-05
   125  1.2400000000000D+00  4.8045237907807D-06 -1.2366549125507D-05
   126  1.2500000000000D+00 -1.6863274311978D-07 -1.4080719132566D-06
   127  1.2600000000000D+00 -9.3223511550684D-08 -7.7840996855776D-07
   128  1.2700000000000D+00  0.0000000000000D+00  0.0000000000000D+00
   129  1.2800000000000D+00  0.0000000000000D+00  0.0000000000000D+00
   130  1.2900000000000D+00  0.0000000000000D+00  0.0000000000000D+00
   131  1.3000000000000D+00  0.0000000000000D+00  0.0000000000000D+00
   132  1.3100000000000D+00  0.0000000000000D+00  0.0000000000000D+00
   133  1.3200000000000D+00  0.0000000000000D+00  0.0000000000000D+00
   134  1.3300000000000D+00  0.0000000000000D+00  0.0000000000000D+00
   135  1.3400000000000D+00  0.0000000000000D+00  0.0000000000000D+00
   136  1.3500000000000D+00  0.0000000000000D+00  0.0000000000000D+00
   137  1.3600000000000D+00  0.0000000000000D+00  0.0000000000000D+00
   138  1.3700000000000D+00  0.0000000000000D+00  0.0000000000000D+00
   139  1.3800000000000D+00  0.0000000000000D+00  0.0000000000000D+00
   140  1.3900000000000D+00  0.0000000000000D+00  0.0000000000000D+00
   141  1.4000000000000D+00  0.0000000000000D+00  0.0000000000000D+00
   142  1.4100000000000D+00  0.0000000000000D+00  0.0000000000000D+00
   143  1.4200000000000D+00  0.0000000000000D+00  0.0000000000000D+00
   144  1.4300000000000D+00  0.0000000000000D+00  0.0000000000000D+00
   145  1.4400000000000D+00  0.0000000000000D+00  0.0000000000000D+00
   146  1.4500000000000D+00  0.0000000000000D+00  0.0000000000000D+00
   147  1.4600000000000D+00  0.0000000000000D+00  0.0000000000000D+00
   148  1.4700000000000D+00  0.0000000000000D+00  0.0000000000000D+00
   149  1.4800000000000D+00  0.0000000000000D+00  0.0000000000000D+00
   150  1.4900000000000D+00  0.0000000000000D+00  0.0000000000000D+00
   151  1.5000000000000D+00  0.0000000000000D+00  0.0000000000000D+00
   152  1.5100000000000D+00  0.0000000000000D+00  0.0000000000000D+00
   153  1.5200000000000D+00  0.0000000000000D+00  0.0000000000000D+00
   154  1.5300000000000D+00  0.0000000000000D+00  0.0000000000000D+00
   155  1.5400000000000D+00  0.0000000000000D+00  0.0000000000000D+00
   156  1.5500000000000D+00  0.0000000000000D+00  0.0000000000000D+00
   157  1.5600000000000D+00  0.0000000000000D+00  0.0000000000000D+00
   158  1.5700000000000D+00  0.0000000000000D+00  0.0000000000000D+00
   159  1.5800000000000D+00  0.0000000000000D+00  0.0000000000000D+00
   160  1.5900000000000D+00  0.0000000000000D+00  0.0000000000000D+00
   161  1.6000000000000D+00  0.0000000000000D+00  0.0000000000000D+00
   162  1.6100000000000D+00  0.0000000000000D+00  0.0000000000000D+00
   163  1.6200000000000D+00  0.0000000000000D+00  0.0000000000000D+00
   164  1.6300000000000D+00  0.0000000000000D+00  0.0000000000000D+00
   165  1.6400000000000D+00  0.0000000000000D+00  0.0000000000000D+00
   166  1.6500000000000D+00  0.0000000000000D+00  0.0000000000000D+00
   167  1.6600000000000D+00  0.0000000000000D+00  0.0000000000000D+00
   168  1.6700000000000D+00  0.0000000000000D+00  0.0000000000000D+00
   169  1.6800000000000D+00  0.0000000000000D+00  0.0000000000000D+00
   170  1.6900000000000D+00  0.0000000000000D+00  0.0000000000000D+00
   171  1.7000000000000D+00  0.0000000000000D+00  0.0000000000000D+00
   172  1.7100000000000D+00  0.0000000000000D+00  0.0000000000000D+00
   173  1.7200000000000D+00  0.0000000000000D+00  0.0000000000000D+00
   174  1.7300000000000D+00  0.0000000000000D+00  0.0000000000000D+00
   175  1.7400000000000D+00  0.0000000000000D+00  0.0000000000000D+00
   176  1.7500000000000D+00  0.0000000000000D+00  0.0000000000000D+00
   177  1.7600000000000D+00  0.0000000000000D+00  0.0000000000000D+00
   178  1.7700000000000D+00  0.0000000000000D+00  0.0000000000000D+00
   179  1.7800000000000D+00  0.0000000000000D+00  0.0000000000000D+00
   180  1.7900000000000D+00  0.0000000000000D+00  0.0000000000000D+00
   181  1.8000000000000D+00  0.0000000000000D+00  0.0000000000000D+00
   182  1.8100000000000D+00  0.0000000000000D+00  0.0000000000000D+00
   183  1.8200000000000D+00  0.0000000000000D+00  0.0000000000000D+00
   184  1.8300000000000D+00  0.0000000000000D+00  0.0000000000000D+00
   185  1.8400000000000D+00  0.0000000000000D+00  0.0000000000000D+00
   186  1.8500000000000D+00  0.0000000000000D+00  0.0000000000000D+00
   187  1.8600000000000D+00  0.0000000000000D+00  0.0000000000000D+00
   188  1.8700000000000D+00  0.0000000000000D+00  0.0000000000000D+00
   189  1.8800000000000D+00  0.0000000000000D+00  0.0000000000000D+00
   190  1.8900000000000D+00  0.0000000000000D+00  0.0000000000000D+00
   191  1.9000000000000D+00  0.0000000000000D+00  0.0000000000000D+00
   192  1.9100000000000D+00  0.0000000000000D+00  0.0000000000000D+00
   193  1.9200000000000D+00  0.0000000000000D+00  0.0000000000000D+00
   194  1.9300000000000D+00  0.0000000000000D+00  0.0000000000000D+00
   195  1.9400000000000D+00  0.0000000000000D+00  0.0000000000000D+00
   196  1.9500000000000D+00  0.0000000000000D+00  0.0000000000000D+00
   197  1.9600000000000D+00  0.0000000000000D+00  0.0000000000000D+00
   198  1.9700000000000D+00  0.0000000000000D+00  0.0000000000000D+00
   199  1.9800000000000D+00  0.0000000000000D+00  0.0000000000000D+00
   200  1.9900000000000D+00  0.0000000000000D+00  0.0000000000000D+00
   201  2.0000000000000D+00  0.0000000000000D+00  0.0000000000000D+00
   202  2.0100000000000D+00  0.0000000000000D+00  0.0000000000000D+00
   203  2.0200000000000D+00  0.0000000000000D+00  0.0000000000000D+00
   204  2.0300000000000D+00  0.0000000000000D+00  0.0000000000000D+00
   205  2.0400000000000D+00  0.0000000000000D+00  0.0000000000000D+00
   206  2.0500000000000D+00  0.0000000000000D+00  0.0000000000000D+00
   207  2.0600000000000D+00  0.0000000000000D+00  0.0000000000000D+00
   208  2.0700000000000D+00  0.0000000000000D+00  0.0000000000000D+00
   209  2.0800000000000D+00  0.0000000000000D+00  0.0000000000000D+00
   210  2.0900000000000D+00  0.0000000000000D+00  0.0000000000000D+00
   211  2.1000000000000D+00  0.0000000000000D+00  0.0000000000000D+00
   212  2.1100000000000D+00  0.0000000000000D+00  0.0000000000000D+00
   213  2.1200000000000D+00  0.0000000000000D+00  0.0000000000000D+00
   214  2.1300000000000D+00  0.0000000000000D+00  0.0000000000000D+00
   215  2.1400000000000D+00  0.0000000000000D+00  0.0000000000000D+00
   216  2.1500000000000D+00  0.0000000000000D+00  0.0000000000000D+00
   217  2.1600000000000D+00  0.0000000000000D+00  0.0000000000000D+00
   218  2.1700000000000D+00  0.0000000000000D+00  0.0000000000000D+00
   219  2.1800000000000D+00  0.0000000000000D+00  0.0000000000000D+00
   220  2.1900000000000D+00  0.0000000000000D+00  0.0000000000000D+00
   221  2.2000000000000D+00  0.0000000000000D+00  0.0000000000000D+00
   222  2.2100000000000D+00  0.0000000000000D+00  0.0000000000000D+00
   223  2.2200000000000D+00  0.0000000000000D+00  0.0000000000000D+00
   224  2.2300000000000D+00  0.0000000000000D+00  0.0000000000000D+00
   225  2.2400000000000D+00  0.0000000000000D+00  0.0000000000000D+00
   226  2.2500000000000D+00  0.0000000000000D+00  0.0000000000000D+00
   227  2.2600000000000D+00  0.0000000000000D+00  0.0000000000000D+00
   228  2.2700000000000D+00  0.0000000000000D+00  0.0000000000000D+00
   229  2.2800000000000D+00  0.0000000000000D+00  0.0000000000000D+00
   230  2.2900000000000D+00  0.0000000000000D+00  0.0000000000000D+00
   231  2.3000000000000D+00  0.0000000000000D+00  0.0000000000000D+00
   232  2.3100000000000D+00  0.0000000000000D+00  0.0000000000000D+00
   233  2.3200000000000D+00  0.0000000000000D+00  0.0000000000000D+00
   234  2.3300000000000D+00  0.0000000000000D+00  0.0000000000000D+00
   235  2.3400000000000D+00  0.0000000000000D+00  0.0000000000000D+00
   236  2.3500000000000D+00  0.0000000000000D+00  0.0000000000000D+00
   237  2.3600000000000D+00  0.0000000000000D+00  0.0000000000000D+00
   238  2.3700000000000D+00  0.0000000000000D+00  0.0000000000000D+00
   239  2.3800000000000D+00  0.0000000000000D+00  0.0000000000000D+00
   240  2.3900000000000D+00  0.0000000000000D+00  0.0000000000000D+00
   241  2.4000000000000D+00  0.0000000000000D+00  0.0000000000000D+00
   242  2.4100000000000D+00  0.0000000000000D+00  0.0000000000000D+00
   243  2.4200000000000D+00  0.0000000000000D+00  0.0000000000000D+00
   244  2.4300000000000D+00  0.0000000000000D+00  0.0000000000000D+00
   245  2.4400000000000D+00  0.0000000000000D+00  0.0000000000000D+00
   246  2.4500000000000D+00  0.0000000000000D+00  0.0000000000000D+00
   247  2.4600000000000D+00  0.0000000000000D+00  0.0000000000000D+00
   248  2.4700000000000D+00  0.0000000000000D+00  0.0000000000000D+00
   249  2.4800000000000D+00  0.0000000000000D+00  0.0000000000000D+00
   250  2.4900000000000D+00  0.0000000000000D+00  0.0000000000000D+00
   251  2.5000000000000D+00  0.0000000000000D+00  0.0000000000000D+00
   252  2.5100000000000D+00  0.0000000000000D+00  0.0000000000000D+00
   253  2.5200000000000D+00  0.0000000000000D+00  0.0000000000000D+00
   254  2.5300000000000D+00  0.0000000000000D+00  0.0000000000000D+00
   255  2.5400000000000D+00  0.0000000000000D+00  0.0000000000000D+00
   256  2.5500000000000D+00  0.0000000000000D+00  0.0000000000000D+00
   257  2.5600000000000D+00  0.0000000000000D+00  0.0000000000000D+00
   258  2.5700000000000D+00  0.0000000000000D+00  0.0000000000000D+00
   259  2.5800000000000D+00  0.0000000000000D+00  0.0000000000000D+00
   260  2.5900000000000D+00  0.0000000000000D+00  0.0000000000000D+00
   261  2.6000000000000D+00  0.0000000000000D+00  0.0000000000000D+00
   262  2.6100000000000D+00  0.0000000000000D+00  0.0000000000000D+00
   263  2.6200000000000D+00  0.0000000000000D+00  0.0000000000000D+00
   264  2.6300000000000D+00  0.0000000000000D+00  0.0000000000000D+00
   265  2.6400000000000D+00  0.0000000000000D+00  0.0000000000000D+00
   266  2.6500000000000D+00  0.0000000000000D+00  0.0000000000000D+00
   267  2.6600000000000D+00  0.0000000000000D+00  0.0000000000000D+00
   268  2.6700000000000D+00  0.0000000000000D+00  0.0000000000000D+00
   269  2.6800000000000D+00  0.0000000000000D+00  0.0000000000000D+00
   270  2.6900000000000D+00  0.0000000000000D+00  0.0000000000000D+00
   271  2.7000000000000D+00  0.0000000000000D+00  0.0000000000000D+00
   272  2.7100000000000D+00  0.0000000000000D+00  0.0000000000000D+00
   273  2.7200000000000D+00  0.0000000000000D+00  0.0000000000000D+00
   274  2.7300000000000D+00  0.0000000000000D+00  0.0000000000000D+00
   275  2.7400000000000D+00  0.0000000000000D+00  0.0000000000000D+00
   276  2.7500000000000D+00  0.0000000000000D+00  0.0000000000000D+00
   277  2.7600000000000D+00  0.0000000000000D+00  0.0000000000000D+00
   278  2.7700000000000D+00  0.0000000000000D+00  0.0000000000000D+00
   279  2.7800000000000D+00  0.0000000000000D+00  0.0000000000000D+00
   280  2.7900000000000D+00  0.0000000000000D+00  0.0000000000000D+00
   281  2.8000000000000D+00  0.0000000000000D+00  0.0000000000000D+00
   282  2.8100000000000D+00  0.0000000000000D+00  0.0000000000000D+00
   283  2.8200000000000D+00  0.0000000000000D+00  0.0000000000000D+00
   284  2.8300000000000D+00  0.0000000000000D+00  0.0000000000000D+00
   285  2.8400000000000D+00  0.0000000000000D+00  0.0000000000000D+00
   286  2.8500000000000D+00  0.0000000000000D+00  0.0000000000000D+00
   287  2.8600000000000D+00  0.0000000000000D+00  0.0000000000000D+00
   288  2.8700000000000D+00  0.0000000000000D+00  0.0000000000000D+00
   289  2.8800000000000D+00  0.0000000000000D+00  0.0000000000000D+00
   290  2.8900000000000D+00  0.0000000000000D+00  0.0000000000000D+00
   291  2.9000000000000D+00  0.0000000000000D+00  0.0000000000000D+00
   292  2.9100000000000D+00  0.0000000000000D+00  0.0000000000000D+00
   293  2.9200000000000D+00  0.0000000000000D+00  0.0000000000000D+00
   294  2.9300000000000D+00  0.0000000000000D+00  0.0000000000000D+00
   295  2.9400000000000D+00  0.0000000000000D+00  0.0000000000000D+00
   296  2.9500000000000D+00  0.0000000000000D+00  0.0000000000000D+00
   297  2.9600000000000D+00  0.0000000000000D+00  0.0000000000000D+00
   298  2.9700000000000D+00  0.0000000000000D+00  0.0000000000000D+00
   299  2.9800000000000D+00  0.0000000000000D+00  0.0000000000000D+00
   300  2.9900000000000D+00  0.0000000000000D+00  0.0000000000000D+00
   301  3.0000000000000D+00  0.0000000000000D+00  0.0000000000000D+00
   302  3.0100000000000D+00  0.0000000000000D+00  0.0000000000000D+00
   303  3.0200000000000D+00  0.0000000000000D+00  0.0000000000000D+00
   304  3.0300000000000D+00  0.0000000000000D+00  0.0000000000000D+00
   305  3.0400000000000D+00  0.0000000000000D+00  0.0000000000000D+00
   306  3.0500000000000D+00  0.0000000000000D+00  0.0000000000000D+00
   307  3.0600000000000D+00  0.0000000000000D+00  0.0000000000000D+00
   308  3.0700000000000D+00  0.0000000000000D+00  0.0000000000000D+00
   309  3.0800000000000D+00  0.0000000000000D+00  0.0000000000000D+00
   310  3.0900000000000D+00  0.0000000000000D+00  0.0000000000000D+00
   311  3.1000000000000D+00  0.0000000000000D+00  0.0000000000000D+00
   312  3.1100000000000D+00  0.0000000000000D+00  0.0000000000000D+00
   313  3.1200000000000D+00  0.0000000000000D+00  0.0000000000000D+00
   314  3.1300000000000D+00  0.0000000000000D+00  0.0000000000000D+00
   315  3.1400000000000D+00  0.0000000000000D+00  0.0000000000000D+00
   316  3.1500000000000D+00  0.0000000000000D+00  0.0000000000000D+00
   317  3.1600000000000D+00  0.0000000000000D+00  0.0000000000000D+00
   318  3.1700000000000D+00  0.0000000000000D+00  0.0000000000000D+00
   319  3.1800000000000D+00  0.0000000000000D+00  0.0000000000000D+00
   320  3.1900000000000D+00  0.0000000000000D+00  0.0000000000000D+00
   321  3.2000000000000D+00  0.0000000000000D+00  0.0000000000000D+00
   322  3.2100000000000D+00  0.0000000000000D+00  0.0000000000000D+00
   323  3.2200000000000D+00  0.0000000000000D+00  0.0000000000000D+00
   324  3.2300000000000D+00  0.0000000000000D+00  0.0000000000000D+00
   325  3.2400000000000D+00  0.0000000000000D+00  0.0000000000000D+00
   326  3.2500000000000D+00  0.0000000000000D+00  0.0000000000000D+00
   327  3.2600000000000D+00  0.0000000000000D+00  0.0000000000000D+00
   328  3.2700000000000D+00  0.0000000000000D+00  0.0000000000000D+00
   329  3.2800000000000D+00  0.0000000000000D+00  0.0000000000000D+00
   330  3.2900000000000D+00  0.0000000000000D+00  0.0000000000000D+00
   331  3.3000000000000D+00  0.0000000000000D+00  0.0000000000000D+00
   332  3.3100000000000D+00  0.0000000000000D+00  0.0000000000000D+00
   333  3.3200000000000D+00  0.0000000000000D+00  0.0000000000000D+00
   334  3.3300000000000D+00  0.0000000000000D+00  0.0000000000000D+00
   335  3.3400000000000D+00  0.0000000000000D+00  0.0000000000000D+00
   336  3.3500000000000D+00  0.0000000000000D+00  0.0000000000000D+00
   337  3.3600000000000D+00  0.0000000000000D+00  0.0000000000000D+00
   338  3.3700000000000D+00  0.0000000000000D+00  0.0000000000000D+00
   339  3.3800000000000D+00  0.0000000000000D+00  0.0000000000000D+00
   340  3.3900000000000D+00  0.0000000000000D+00  0.0000000000000D+00
   341  3.4000000000000D+00  0.0000000000000D+00  0.0000000000000D+00
   342  3.4100000000000D+00  0.0000000000000D+00  0.0000000000000D+00
   343  3.4200000000000D+00  0.0000000000000D+00  0.0000000000000D+00
   344  3.4300000000000D+00  0.0000000000000D+00  0.0000000000000D+00
   345  3.4400000000000D+00  0.0000000000000D+00  0.0000000000000D+00
   346  3.4500000000000D+00  0.0000000000000D+00  0.0000000000000D+00
   347  3.4600000000000D+00  0.0000000000000D+00  0.0000000000000D+00
   348  3.4700000000000D+00  0.0000000000000D+00  0.0000000000000D+00
   349  3.4800000000000D+00  0.0000000000000D+00  0.0000000000000D+00
   350  3.4900000000000D+00  0.0000000000000D+00  0.0000000000000D+00
   351  3.5000000000000D+00  0.0000000000000D+00  0.0000000000000D+00
   352  3.5100000000000D+00  0.0000000000000D+00  0.0000000000000D+00
   353  3.5200000000000D+00  0.0000000000000D+00  0.0000000000000D+00
   354  3.5300000000000D+00  0.0000000000000D+00  0.0000000000000D+00
   355  3.5400000000000D+00  0.0000000000000D+00  0.0000000000000D+00
   356  3.5500000000000D+00  0.0000000000000D+00  0.0000000000000D+00
   357  3.5600000000000D+00  0.0000000000000D+00  0.0000000000000D+00
   358  3.5700000000000D+00  0.0000000000000D+00  0.0000000000000D+00
   359  3.5800000000000D+00  0.0000000000000D+00  0.0000000000000D+00
   360  3.5900000000000D+00  0.0000000000000D+00  0.0000000000000D+00
   361  3.6000000000000D+00  0.0000000000000D+00  0.0000000000000D+00
   362  3.6100000000000D+00  0.0000000000000D+00  0.0000000000000D+00
   363  3.6200000000000D+00  0.0000000000000D+00  0.0000000000000D+00
   364  3.6300000000000D+00  0.0000000000000D+00  0.0000000000000D+00
   365  3.6400000000000D+00  0.0000000000000D+00  0.0000000000000D+00
   366  3.6500000000000D+00  0.0000000000000D+00  0.0000000000000D+00
   367  3.6600000000000D+00  0.0000000000000D+00  0.0000000000000D+00
   368  3.6700000000000D+00  0.0000000000000D+00  0.0000000000000D+00
   369  3.6800000000000D+00  0.0000000000000D+00  0.0000000000000D+00
   370  3.6900000000000D+00  0.0000000000000D+00  0.0000000000000D+00
   371  3.7000000000000D+00  0.0000000000000D+00  0.0000000000000D+00
   372  3.7100000000000D+00  0.0000000000000D+00  0.0000000000000D+00
   373  3.7200000000000D+00  0.0000000000000D+00  0.0000000000000D+00
   374  3.7300000000000D+00  0.0000000000000D+00  0.0000000000000D+00
   375  3.7400000000000D+00  0.0000000000000D+00  0.0000000000000D+00
   376  3.7500000000000D+00  0.0000000000000D+00  0.0000000000000D+00
   377  3.7600000000000D+00  0.0000000000000D+00  0.0000000000000D+00
   378  3.7700000000000D+00  0.0000000000000D+00  0.0000000000000D+00
   379  3.7800000000000D+00  0.0000000000000D+00  0.0000000000000D+00
   380  3.7900000000000D+00  0.0000000000000D+00  0.0000000000000D+00
   381  3.8000000000000D+00  0.0000000000000D+00  0.0000000000000D+00
   382  3.8100000000000D+00  0.0000000000000D+00  0.0000000000000D+00
   383  3.8200000000000D+00  0.0000000000000D+00  0.0000000000000D+00
   384  3.8300000000000D+00  0.0000000000000D+00  0.0000000000000D+00
   385  3.8400000000000D+00  0.0000000000000D+00  0.0000000000000D+00
   386  3.8500000000000D+00  0.0000000000000D+00  0.0000000000000D+00
   387  3.8600000000000D+00  0.0000000000000D+00  0.0000000000000D+00
   388  3.8700000000000D+00  0.0000000000000D+00  0.0000000000000D+00
   389  3.8800000000000D+00  0.0000000000000D+00  0.0000000000000D+00
   390  3.8900000000000D+00  0.0000000000000D+00  0.0000000000000D+00
   391  3.9000000000000D+00  0.0000000000000D+00  0.0000000000000D+00
   392  3.9100000000000D+00  0.0000000000000D+00  0.0000000000000D+00
   393  3.9200000000000D+00  0.0000000000000D+00  0.0000000000000D+00
   394  3.9300000000000D+00  0.0000000000000D+00  0.0000000000000D+00
   395  3.9400000000000D+00  0.0000000000000D+00  0.0000000000000D+00
   396  3.9500000000000D+00  0.0000000000000D+00  0.0000000000000D+00
   397  3.9600000000000D+00  0.0000000000000D+00  0.0000000000000D+00
   398  3.9700000000000D+00  0.0000000000000D+00  0.0000000000000D+00
   399  3.9800000000000D+00  0.0000000000000D+00  0.0000000000000D+00
   400  3.9900000000000D+00  0.0000000000000D+00  0.0000000000000D+00
   401  4.0000000000000D+00  0.0000000000000D+00  0.0000000000000D+00
   402  4.0100000000000D+00  0.0000000000000D+00  0.0000000000000D+00
   403  4.0200000000000D+00  0.0000000000000D+00  0.0000000000000D+00
   404  4.0300000000000D+00  0.0000000000000D+00  0.0000000000000D+00
   405  4.0400000000000D+00  0.0000000000000D+00  0.0000000000000D+00
   406  4.0500000000000D+00  0.0000000000000D+00  0.0000000000000D+00
   407  4.0600000000000D+00  0.0000000000000D+00  0.0000000000000D+00
   408  4.0700000000000D+00  0.0000000000000D+00  0.0000000000000D+00
   409  4.0800000000000D+00  0.0000000000000D+00  0.0000000000000D+00
   410  4.0900000000000D+00  0.0000000000000D+00  0.0000000000000D+00
   411  4.1000000000000D+00  0.0000000000000D+00  0.0000000000000D+00
   412  4.1100000000000D+00  0.0000000000000D+00  0.0000000000000D+00
   413  4.1200000000000D+00  0.0000000000000D+00  0.0000000000000D+00
   414  4.1300000000000D+00  0.0000000000000D+00  0.0000000000000D+00
   415  4.1400000000000D+00  0.0000000000000D+00  0.0000000000000D+00
   416  4.1500000000000D+00  0.0000000000000D+00  0.0000000000000D+00
   417  4.1600000000000D+00  0.0000000000000D+00  0.0000000000000D+00
   418  4.1700000000000D+00  0.0000000000000D+00  0.0000000000000D+00
   419  4.1800000000000D+00  0.0000000000000D+00  0.0000000000000D+00
   420  4.1900000000000D+00  0.0000000000000D+00  0.0000000000000D+00
   421  4.2000000000000D+00  0.0000000000000D+00  0.0000000000000D+00
   422  4.2100000000000D+00  0.0000000000000D+00  0.0000000000000D+00