Zr    ONCVPSP-3.3.0  r_core=   1.56507   1.56507   1.51006
     40.0000     12.0000      220117    zatom,zion,pspd
     8      11   2     4   600     0    pspcod,pspxc,lmax,lloc,mmax,r2well
  5.99000000  0.00000000  0.00000000    rchrg fchrg qchrg
     2     2     2     0     0    nproj
     1     1           extension_switch
   0                         1.0621765719013D+01  8.9880508878235D-01
     1  0.0000000000000D+00 -2.0985885251790D-10  1.0276241524387D-09
     2  1.0000000000000D-02  5.6228127094711D-02 -3.2324371406349D-02
     3  2.0000000000000D-02  1.1236253026065D-01 -6.4461595247669D-02
     4  3.0000000000000D-02  1.6830987220962D-01 -9.6226198462455D-02
     5  4.0000000000000D-02  2.2397758481402D-01 -1.2743603627400D-01
     6  5.0000000000000D-02  2.7927424343990D-01 -1.5791390479214D-01
     7  6.0000000000000D-02  3.3410992913432D-01 -1.8748909250495D-01
     8  7.0000000000000D-02  3.8839657486806D-01 -2.1599885151193D-01
     9  8.0000000000000D-02  4.4204829224447D-01 -2.4328977037787D-01
    10  9.0000000000000D-02  4.9498167534267D-01 -2.6921903174700D-01
    11  1.0000000000000D-01  5.4711607866471D-01 -2.9365553933518D-01
    12  1.1000000000000D-01  5.9837386649785D-01 -3.1648090059498D-01
    13  1.2000000000000D-01  6.4868063138128D-01 -3.3759025320378D-01
    14  1.3000000000000D-01  6.9796537977488D-01 -3.5689292553586D-01
    15  1.4000000000000D-01  7.4616068346280D-01 -3.7431292342088D-01
    16  1.5000000000000D-01  7.9320279567950D-01 -3.8978923773569D-01
    17  1.6000000000000D-01  8.3903173141535D-01 -4.0327596969722D-01
    18  1.7000000000000D-01  8.8359131183682D-01 -4.1474227309131D-01
    19  1.8000000000000D-01  9.2682917323623D-01 -4.2417211505659D-01
    20  1.9000000000000D-01  9.6869674140195D-01 -4.3156385941333D-01
    21  2.0000000000000D-01  1.0091491727654D+00 -4.3692967885484D-01
    22  2.1000000000000D-01  1.0481452641302D+00 -4.4029480457411D-01
    23  2.2000000000000D-01  1.0856473332150D+00 -4.4169662405129D-01
    24  2.3000000000000D-01  1.1216210726408D+00 -4.4118363975127D-01
    25  2.4000000000000D-01  1.1560353803558D+00 -4.3881430334845D-01
    26  2.5000000000000D-01  1.1888621698193D+00 -4.3465574178303D-01
    27  2.6000000000000D-01  1.2200761635464D+00 -4.2878239293801D-01
    28  2.7000000000000D-01  1.2496546738519D+00 -4.2127456998730D-01
    29  2.8000000000000D-01  1.2775773748146D+00 -4.1221697448712D-01
    30  2.9000000000000D-01  1.3038260696152D+00 -4.0169717904878D-01
    31  3.0000000000000D-01  1.3283844574739D+00 -3.8980410093120D-01
    32  3.1000000000000D-01  1.3512379044319D+00 -3.7662648811642D-01
    33  3.2000000000000D-01  1.3723732221786D+00 -3.6225143937717D-01
    34  3.3000000000000D-01  1.3917784590283D+00 -3.4676297950961D-01
    35  3.4000000000000D-01  1.4094427069901D+00 -3.3024071028964D-01
    36  3.5000000000000D-01  1.4253559286625D+00 -3.1275855682279D-01
    37  3.6000000000000D-01  1.4395088074157D+00 -2.9438362780431D-01
    38  3.7000000000000D-01  1.4518926240059D+00 -2.7517520680038D-01
    39  3.8000000000000D-01  1.4624991623956D+00 -2.5518389001890D-01
    40  3.9000000000000D-01  1.4713206471471D+00 -2.3445088417795D-01
    41  4.0000000000000D-01  1.4783497143036D+00 -2.1300747602202D-01
    42  4.1000000000000D-01  1.4835794171897D+00 -1.9087468280758D-01
    43  4.2000000000000D-01  1.4870032680531D+00 -1.6806309070336D-01
    44  4.3000000000000D-01  1.4886153159347D+00 -1.4457288555921D-01
    45  4.4000000000000D-01  1.4884102606105D+00 -1.2039407791835D-01
    46  4.5000000000000D-01  1.4863836018906D+00 -9.5506921514950D-02
    47  4.6000000000000D-01  1.4825318230065D+00 -6.9882521843966D-02
    48  4.7000000000000D-01  1.4768526062684D+00 -4.3483628747245D-02
    49  4.8000000000000D-01  1.4693450786399D+00 -1.6265604363009D-02
    50  4.9000000000000D-01  1.4600100843592D+00  1.1822444732319D-02
    51  5.0000000000000D-01  1.4488504812545D+00  4.0836384766248D-02
    52  5.1000000000000D-01  1.4358714569448D+00  7.0835637233849D-02
    53  5.2000000000000D-01  1.4210808607084D+00  1.0188164450708D-01
    54  5.3000000000000D-01  1.4044895464374D+00  1.3403623839677D-01
    55  5.4000000000000D-01  1.3861117217845D+00  1.6735993312627D-01
    56  5.5000000000000D-01  1.3659652983555D+00  2.0191016557578D-01
    57  5.6000000000000D-01  1.3440722376082D+00  2.3773950677866D-01
    58  5.7000000000000D-01  1.3204588869928D+00  2.7489386948204D-01
    59  5.8000000000000D-01  1.2951563008095D+00  3.1341073710714D-01
    60  5.9000000000000D-01  1.2682005402709D+00  3.5331743964889D-01
    61  6.0000000000000D-01  1.2396329473427D+00  3.9462950193395D-01
    62  6.1000000000000D-01  1.2095003870863D+00  4.3734908920720D-01
    63  6.2000000000000D-01  1.1778554534570D+00  4.8146357424167D-01
    64  6.3000000000000D-01  1.1447566338062D+00  5.2694424906499D-01
    65  6.4000000000000D-01  1.1102684276961D+00  5.7374520299179D-01
    66  6.5000000000000D-01  1.0744614160656D+00  6.2180238693389D-01
    67  6.6000000000000D-01  1.0374122772696D+00  6.7103288196942D-01
    68  6.7000000000000D-01  9.9920374705659D-01  7.2133438790642D-01
    69  6.8000000000000D-01  9.5992452013753D-01  7.7258494507486D-01
    70  6.9000000000000D-01  9.1966909163600D-01  8.2464289988829D-01
    71  7.0000000000000D-01  8.7853753737328D-01  8.7734712184206D-01
    72  7.1000000000000D-01  8.3663523264199D-01  9.3051747659175D-01
    73  7.2000000000000D-01  7.9407250983825D-01  9.8395555662279D-01
    74  7.3000000000000D-01  7.5096425605017D-01  1.0374456678266D+00
    75  7.4000000000000D-01  7.0742945243269D-01  1.0907560670610D+00
    76  7.5000000000000D-01  6.6359065792343D-01  1.1436404425507D+00
    77  7.6000000000000D-01  6.1957344056507D-01  1.1958396258061D+00
    78  7.7000000000000D-01  5.7550576038765D-01  1.2470835206440D+00
    79  7.8000000000000D-01  5.3151730845718D-01  1.2970932319366D+00
    80  7.9000000000000D-01  4.8773880731083D-01  1.3455833739200D+00
    81  8.0000000000000D-01  4.4430127856321D-01  1.3922645352986D+00
    82  8.1000000000000D-01  4.0133528397538D-01  1.4368458760310D+00
    83  8.2000000000000D-01  3.5897014672231D-01  1.4790378285975D+00
    84  8.3000000000000D-01  3.1733315996752D-01  1.5185548747705D+00
    85  8.4000000000000D-01  2.7654879015170D-01  1.5551183674509D+00
    86  8.5000000000000D-01  2.3673788261910D-01  1.5884593660271D+00
    87  8.6000000000000D-01  1.9801687733841D-01  1.6183214529761D+00
    88  8.7000000000000D-01  1.6049704252029D-01  1.6444634990657D+00
    89  8.8000000000000D-01  1.2428373389041D-01  1.6666623445527D+00
    90  8.9000000000000D-01  8.9475687243408D-02  1.6847153641995D+00
    91  9.0000000000000D-01  5.6164351680245D-02  1.6984428847560D+00
    92  9.1000000000000D-01  2.4433270620632D-02  1.7076904247689D+00
    93  9.2000000000000D-01 -5.6424827146549D-03  1.7123307281779D+00
    94  9.3000000000000D-01 -3.3996809135369D-02  1.7122655651158D+00
    95  9.4000000000000D-01 -6.0573020967239D-02  1.7074272756417D+00
    96  9.5000000000000D-01 -8.5324208159226D-02  1.6977800347626D+00
    97  9.6000000000000D-01 -1.0821352867380D-01  1.6833208200243D+00
    98  9.7000000000000D-01 -1.2921441957026D-01  1.6640800661280D+00
    99  9.8000000000000D-01 -1.4831072600378D-01  1.6401219944901D+00
   100  9.9000000000000D-01 -1.6549674617785D-01  1.6115446091476D+00
   101  1.0000000000000D+00 -1.8077719118870D-01  1.5784793542759D+00
   102  1.0100000000000D+00 -1.9416705957894D-01  1.5410904323621D+00
   103  1.0200000000000D+00 -2.0569142732364D-01  1.4995737859822D+00
   104  1.0300000000000D+00 -2.1538515487559D-01  1.4541557500300D+00
   105  1.0400000000000D+00 -2.2329251379972D-01  1.4050913851500D+00
   106  1.0500000000000D+00 -2.2946673638586D-01  1.3526625068466D+00
   107  1.0600000000000D+00 -2.3396949246000D-01  1.2971754283384D+00
   108  1.0700000000000D+00 -2.3687029845122D-01  1.2389584388583D+00
   109  1.0800000000000D+00 -2.3824586447559D-01  1.1783590421506D+00
   110  1.0900000000000D+00 -2.3817938591365D-01  1.1157409830173D+00
   111  1.1000000000000D+00 -2.3675978654148D-01  1.0514810922957D+00
   112  1.1100000000000D+00 -2.3408092082656D-01  9.8596598303076D-01
   113  1.1200000000000D+00 -2.3024074347124D-01  9.1958863264756D-01
   114  1.1300000000000D+00 -2.2534045461603D-01  8.5274488733903D-01
   115  1.1400000000000D+00 -2.1948362938132D-01  7.8582992602141D-01
   116  1.1500000000000D+00 -2.1277534060206D-01  7.1923472195210D-01
   117  1.1600000000000D+00 -2.0532128368194D-01  6.5334254037820D-01
   118  1.1700000000000D+00 -1.9722691241441D-01  5.8852551020071D-01
   119  1.1800000000000D+00 -1.8859659447752D-01  5.2514130698436D-01
   120  1.1900000000000D+00 -1.7953279513027D-01  4.6352998381649D-01
   121  1.2000000000000D+00 -1.7013529719952D-01  4.0401098453906D-01
   122  1.2100000000000D+00 -1.6050046492398D-01  3.4688037153294D-01
   123  1.2200000000000D+00 -1.5072055899666D-01  2.9240829921891D-01
   124  1.2300000000000D+00 -1.4088310917634D-01  2.4083676009396D-01
   125  1.2400000000000D+00 -1.3107035017328D-01  1.9237762715360D-01
   126  1.2500000000000D+00 -1.2135872601394D-01  1.4721101431545D-01
   127  1.2600000000000D+00 -1.1181846705261D-01  1.0548397183145D-01
   128  1.2700000000000D+00 -1.0251324266338D-01  6.7309528625797D-02
   129  1.2800000000000D+00 -9.3499892228551D-02  3.2766091637280D-02
   130  1.2900000000000D+00 -8.4828235873041D-02  1.8972070474604D-03
   131  1.3000000000000D+00 -7.6540964905599D-02 -2.5288318338209D-02
   132  1.3100000000000D+00 -6.8673611864240D-02 -4.8815937571657D-02
   133  1.3200000000000D+00 -6.1254598522568D-02 -6.8744534772181D-02
   134  1.3300000000000D+00 -5.4305358782596D-02 -8.5165262270470D-02
   135  1.3400000000000D+00 -4.7840533801482D-02 -9.8200057026642D-02
   136  1.3500000000000D+00 -4.1868234438542D-02 -1.0799985968896D-01
   137  1.3600000000000D+00 -3.6390365529138D-02 -1.1474256219518D-01
   138  1.3700000000000D+00 -3.1403006926530D-02 -1.1863070792915D-01
   139  1.3800000000000D+00 -2.6896843441932D-02 -1.1988898082941D-01
   140  1.3900000000000D+00 -2.2857637001197D-02 -1.1876151458547D-01
   141  1.4000000000000D+00 -1.9266733005627D-02 -1.1550905896033D-01
   142  1.4100000000000D+00 -1.6101590846299D-02 -1.1040605024174D-01
   143  1.4200000000000D+00 -1.3336338204934D-02 -1.0373758226729D-01
   144  1.4300000000000D+00 -1.0942307997550D-02 -9.5796486754539D-02
   145  1.4400000000000D+00 -8.8886609368837D-03 -8.6879986359372D-02
   146  1.4500000000000D+00 -7.1428510189638D-03 -7.7287154133837D-02
   147  1.4600000000000D+00 -5.6710024622527D-03 -6.7316889454552D-02
   148  1.4700000000000D+00 -4.4392325605129D-03 -5.7260816028791D-02
   149  1.4800000000000D+00 -3.4148549834416D-03 -4.7396944934050D-02
   150  1.4900000000000D+00 -2.5678217477038D-03 -3.7982328956069D-02
   151  1.5000000000000D+00 -1.8716213991760D-03 -2.9248600261973D-02
   152  1.5100000000000D+00 -1.3036182657405D-03 -2.1400539669743D-02
   153  1.5200000000000D+00 -8.4586109411123D-04 -1.4619149487577D-02
   154  1.5300000000000D+00 -4.8410153641884D-04 -9.0206164434557D-03
   155  1.5400000000000D+00 -2.1075625957330D-04 -4.7262007115774D-03
   156  1.5500000000000D+00 -2.4153930917818D-05 -1.9461058393662D-03
   157  1.5600000000000D+00  7.2830667355863D-05 -5.7657911048272D-04
   158  1.5700000000000D+00  7.4198463069556D-05 -8.5029475052822D-05
   159  1.5800000000000D+00  1.9926540650064D-05  6.2374822495238D-06
   160  1.5900000000000D+00 -1.1202657088134D-05 -9.3284798775410D-06
   161  1.6000000000000D+00 -4.4544325963484D-06 -5.3235401255624D-06
   162  1.6100000000000D+00  2.4416009832174D-06  6.8650970544140D-07
   163  1.6200000000000D+00  7.7106742863226D-07  3.4562622601862D-07
   164  1.6300000000000D+00 -2.4000064502553D-07  7.1878978109445D-07
   165  1.6400000000000D+00 -5.7419377545027D-08  1.7196812871807D-07
   166  1.6500000000000D+00  0.0000000000000D+00  0.0000000000000D+00
   167  1.6600000000000D+00  0.0000000000000D+00  0.0000000000000D+00
   168  1.6700000000000D+00  0.0000000000000D+00  0.0000000000000D+00
   169  1.6800000000000D+00  0.0000000000000D+00  0.0000000000000D+00
   170  1.6900000000000D+00  0.0000000000000D+00  0.0000000000000D+00
   171  1.7000000000000D+00  0.0000000000000D+00  0.0000000000000D+00
   172  1.7100000000000D+00  0.0000000000000D+00  0.0000000000000D+00
   173  1.7200000000000D+00  0.0000000000000D+00  0.0000000000000D+00
   174  1.7300000000000D+00  0.0000000000000D+00  0.0000000000000D+00
   175  1.7400000000000D+00  0.0000000000000D+00  0.0000000000000D+00
   176  1.7500000000000D+00  0.0000000000000D+00  0.0000000000000D+00
   177  1.7600000000000D+00  0.0000000000000D+00  0.0000000000000D+00
   178  1.7700000000000D+00  0.0000000000000D+00  0.0000000000000D+00
   179  1.7800000000000D+00  0.0000000000000D+00  0.0000000000000D+00
   180  1.7900000000000D+00  0.0000000000000D+00  0.0000000000000D+00
   181  1.8000000000000D+00  0.0000000000000D+00  0.0000000000000D+00
   182  1.8100000000000D+00  0.0000000000000D+00  0.0000000000000D+00
   183  1.8200000000000D+00  0.0000000000000D+00  0.0000000000000D+00
   184  1.8300000000000D+00  0.0000000000000D+00  0.0000000000000D+00
   185  1.8400000000000D+00  0.0000000000000D+00  0.0000000000000D+00
   186  1.8500000000000D+00  0.0000000000000D+00  0.0000000000000D+00
   187  1.8600000000000D+00  0.0000000000000D+00  0.0000000000000D+00
   188  1.8700000000000D+00  0.0000000000000D+00  0.0000000000000D+00
   189  1.8800000000000D+00  0.0000000000000D+00  0.0000000000000D+00
   190  1.8900000000000D+00  0.0000000000000D+00  0.0000000000000D+00
   191  1.9000000000000D+00  0.0000000000000D+00  0.0000000000000D+00
   192  1.9100000000000D+00  0.0000000000000D+00  0.0000000000000D+00
   193  1.9200000000000D+00  0.0000000000000D+00  0.0000000000000D+00
   194  1.9300000000000D+00  0.0000000000000D+00  0.0000000000000D+00
   195  1.9400000000000D+00  0.0000000000000D+00  0.0000000000000D+00
   196  1.9500000000000D+00  0.0000000000000D+00  0.0000000000000D+00
   197  1.9600000000000D+00  0.0000000000000D+00  0.0000000000000D+00
   198  1.9700000000000D+00  0.0000000000000D+00  0.0000000000000D+00
   199  1.9800000000000D+00  0.0000000000000D+00  0.0000000000000D+00
   200  1.9900000000000D+00  0.0000000000000D+00  0.0000000000000D+00
   201  2.0000000000000D+00  0.0000000000000D+00  0.0000000000000D+00
   202  2.0100000000000D+00  0.0000000000000D+00  0.0000000000000D+00
   203  2.0200000000000D+00  0.0000000000000D+00  0.0000000000000D+00
   204  2.0300000000000D+00  0.0000000000000D+00  0.0000000000000D+00
   205  2.0400000000000D+00  0.0000000000000D+00  0.0000000000000D+00
   206  2.0500000000000D+00  0.0000000000000D+00  0.0000000000000D+00
   207  2.0600000000000D+00  0.0000000000000D+00  0.0000000000000D+00
   208  2.0700000000000D+00  0.0000000000000D+00  0.0000000000000D+00
   209  2.0800000000000D+00  0.0000000000000D+00  0.0000000000000D+00
   210  2.0900000000000D+00  0.0000000000000D+00  0.0000000000000D+00
   211  2.1000000000000D+00  0.0000000000000D+00  0.0000000000000D+00
   212  2.1100000000000D+00  0.0000000000000D+00  0.0000000000000D+00
   213  2.1200000000000D+00  0.0000000000000D+00  0.0000000000000D+00
   214  2.1300000000000D+00  0.0000000000000D+00  0.0000000000000D+00
   215  2.1400000000000D+00  0.0000000000000D+00  0.0000000000000D+00
   216  2.1500000000000D+00  0.0000000000000D+00  0.0000000000000D+00
   217  2.1600000000000D+00  0.0000000000000D+00  0.0000000000000D+00
   218  2.1700000000000D+00  0.0000000000000D+00  0.0000000000000D+00
   219  2.1800000000000D+00  0.0000000000000D+00  0.0000000000000D+00
   220  2.1900000000000D+00  0.0000000000000D+00  0.0000000000000D+00
   221  2.2000000000000D+00  0.0000000000000D+00  0.0000000000000D+00
   222  2.2100000000000D+00  0.0000000000000D+00  0.0000000000000D+00
   223  2.2200000000000D+00  0.0000000000000D+00  0.0000000000000D+00
   224  2.2300000000000D+00  0.0000000000000D+00  0.0000000000000D+00
   225  2.2400000000000D+00  0.0000000000000D+00  0.0000000000000D+00
   226  2.2500000000000D+00  0.0000000000000D+00  0.0000000000000D+00
   227  2.2600000000000D+00  0.0000000000000D+00  0.0000000000000D+00
   228  2.2700000000000D+00  0.0000000000000D+00  0.0000000000000D+00
   229  2.2800000000000D+00  0.0000000000000D+00  0.0000000000000D+00
   230  2.2900000000000D+00  0.0000000000000D+00  0.0000000000000D+00
   231  2.3000000000000D+00  0.0000000000000D+00  0.0000000000000D+00
   232  2.3100000000000D+00  0.0000000000000D+00  0.0000000000000D+00
   233  2.3200000000000D+00  0.0000000000000D+00  0.0000000000000D+00
   234  2.3300000000000D+00  0.0000000000000D+00  0.0000000000000D+00
   235  2.3400000000000D+00  0.0000000000000D+00  0.0000000000000D+00
   236  2.3500000000000D+00  0.0000000000000D+00  0.0000000000000D+00
   237  2.3600000000000D+00  0.0000000000000D+00  0.0000000000000D+00
   238  2.3700000000000D+00  0.0000000000000D+00  0.0000000000000D+00
   239  2.3800000000000D+00  0.0000000000000D+00  0.0000000000000D+00
   240  2.3900000000000D+00  0.0000000000000D+00  0.0000000000000D+00
   241  2.4000000000000D+00  0.0000000000000D+00  0.0000000000000D+00
   242  2.4100000000000D+00  0.0000000000000D+00  0.0000000000000D+00
   243  2.4200000000000D+00  0.0000000000000D+00  0.0000000000000D+00
   244  2.4300000000000D+00  0.0000000000000D+00  0.0000000000000D+00
   245  2.4400000000000D+00  0.0000000000000D+00  0.0000000000000D+00
   246  2.4500000000000D+00  0.0000000000000D+00  0.0000000000000D+00
   247  2.4600000000000D+00  0.0000000000000D+00  0.0000000000000D+00
   248  2.4700000000000D+00  0.0000000000000D+00  0.0000000000000D+00
   249  2.4800000000000D+00  0.0000000000000D+00  0.0000000000000D+00
   250  2.4900000000000D+00  0.0000000000000D+00  0.0000000000000D+00
   251  2.5000000000000D+00  0.0000000000000D+00  0.0000000000000D+00
   252  2.5100000000000D+00  0.0000000000000D+00  0.0000000000000D+00
   253  2.5200000000000D+00  0.0000000000000D+00  0.0000000000000D+00
   254  2.5300000000000D+00  0.0000000000000D+00  0.0000000000000D+00
   255  2.5400000000000D+00  0.0000000000000D+00  0.0000000000000D+00
   256  2.5500000000000D+00  0.0000000000000D+00  0.0000000000000D+00
   257  2.5600000000000D+00  0.0000000000000D+00  0.0000000000000D+00
   258  2.5700000000000D+00  0.0000000000000D+00  0.0000000000000D+00
   259  2.5800000000000D+00  0.0000000000000D+00  0.0000000000000D+00
   260  2.5900000000000D+00  0.0000000000000D+00  0.0000000000000D+00
   261  2.6000000000000D+00  0.0000000000000D+00  0.0000000000000D+00
   262  2.6100000000000D+00  0.0000000000000D+00  0.0000000000000D+00
   263  2.6200000000000D+00  0.0000000000000D+00  0.0000000000000D+00
   264  2.6300000000000D+00  0.0000000000000D+00  0.0000000000000D+00
   265  2.6400000000000D+00  0.0000000000000D+00  0.0000000000000D+00
   266  2.6500000000000D+00  0.0000000000000D+00  0.0000000000000D+00
   267  2.6600000000000D+00  0.0000000000000D+00  0.0000000000000D+00
   268  2.6700000000000D+00  0.0000000000000D+00  0.0000000000000D+00
   269  2.6800000000000D+00  0.0000000000000D+00  0.0000000000000D+00
   270  2.6900000000000D+00  0.0000000000000D+00  0.0000000000000D+00
   271  2.7000000000000D+00  0.0000000000000D+00  0.0000000000000D+00
   272  2.7100000000000D+00  0.0000000000000D+00  0.0000000000000D+00
   273  2.7200000000000D+00  0.0000000000000D+00  0.0000000000000D+00
   274  2.7300000000000D+00  0.0000000000000D+00  0.0000000000000D+00
   275  2.7400000000000D+00  0.0000000000000D+00  0.0000000000000D+00
   276  2.7500000000000D+00  0.0000000000000D+00  0.0000000000000D+00
   277  2.7600000000000D+00  0.0000000000000D+00  0.0000000000000D+00
   278  2.7700000000000D+00  0.0000000000000D+00  0.0000000000000D+00
   279  2.7800000000000D+00  0.0000000000000D+00  0.0000000000000D+00
   280  2.7900000000000D+00  0.0000000000000D+00  0.0000000000000D+00
   281  2.8000000000000D+00  0.0000000000000D+00  0.0000000000000D+00
   282  2.8100000000000D+00  0.0000000000000D+00  0.0000000000000D+00
   283  2.8200000000000D+00  0.0000000000000D+00  0.0000000000000D+00
   284  2.8300000000000D+00  0.0000000000000D+00  0.0000000000000D+00
   285  2.8400000000000D+00  0.0000000000000D+00  0.0000000000000D+00
   286  2.8500000000000D+00  0.0000000000000D+00  0.0000000000000D+00
   287  2.8600000000000D+00  0.0000000000000D+00  0.0000000000000D+00
   288  2.8700000000000D+00  0.0000000000000D+00  0.0000000000000D+00
   289  2.8800000000000D+00  0.0000000000000D+00  0.0000000000000D+00
   290  2.8900000000000D+00  0.0000000000000D+00  0.0000000000000D+00
   291  2.9000000000000D+00  0.0000000000000D+00  0.0000000000000D+00
   292  2.9100000000000D+00  0.0000000000000D+00  0.0000000000000D+00
   293  2.9200000000000D+00  0.0000000000000D+00  0.0000000000000D+00
   294  2.9300000000000D+00  0.0000000000000D+00  0.0000000000000D+00
   295  2.9400000000000D+00  0.0000000000000D+00  0.0000000000000D+00
   296  2.9500000000000D+00  0.0000000000000D+00  0.0000000000000D+00
   297  2.9600000000000D+00  0.0000000000000D+00  0.0000000000000D+00
   298  2.9700000000000D+00  0.0000000000000D+00  0.0000000000000D+00
   299  2.9800000000000D+00  0.0000000000000D+00  0.0000000000000D+00
   300  2.9900000000000D+00  0.0000000000000D+00  0.0000000000000D+00
   301  3.0000000000000D+00  0.0000000000000D+00  0.0000000000000D+00
   302  3.0100000000000D+00  0.0000000000000D+00  0.0000000000000D+00
   303  3.0200000000000D+00  0.0000000000000D+00  0.0000000000000D+00
   304  3.0300000000000D+00  0.0000000000000D+00  0.0000000000000D+00
   305  3.0400000000000D+00  0.0000000000000D+00  0.0000000000000D+00
   306  3.0500000000000D+00  0.0000000000000D+00  0.0000000000000D+00
   307  3.0600000000000D+00  0.0000000000000D+00  0.0000000000000D+00
   308  3.0700000000000D+00  0.0000000000000D+00  0.0000000000000D+00
   309  3.0800000000000D+00  0.0000000000000D+00  0.0000000000000D+00
   310  3.0900000000000D+00  0.0000000000000D+00  0.0000000000000D+00
   311  3.1000000000000D+00  0.0000000000000D+00  0.0000000000000D+00
   312  3.1100000000000D+00  0.0000000000000D+00  0.0000000000000D+00
   313  3.1200000000000D+00  0.0000000000000D+00  0.0000000000000D+00
   314  3.1300000000000D+00  0.0000000000000D+00  0.0000000000000D+00
   315  3.1400000000000D+00  0.0000000000000D+00  0.0000000000000D+00
   316  3.1500000000000D+00  0.0000000000000D+00  0.0000000000000D+00
   317  3.1600000000000D+00  0.0000000000000D+00  0.0000000000000D+00
   318  3.1700000000000D+00  0.0000000000000D+00  0.0000000000000D+00
   319  3.1800000000000D+00  0.0000000000000D+00  0.0000000000000D+00
   320  3.1900000000000D+00  0.0000000000000D+00  0.0000000000000D+00
   321  3.2000000000000D+00  0.0000000000000D+00  0.0000000000000D+00
   322  3.2100000000000D+00  0.0000000000000D+00  0.0000000000000D+00
   323  3.2200000000000D+00  0.0000000000000D+00  0.0000000000000D+00
   324  3.2300000000000D+00  0.0000000000000D+00  0.0000000000000D+00
   325  3.2400000000000D+00  0.0000000000000D+00  0.0000000000000D+00
   326  3.2500000000000D+00  0.0000000000000D+00  0.0000000000000D+00
   327  3.2600000000000D+00  0.0000000000000D+00  0.0000000000000D+00
   328  3.2700000000000D+00  0.0000000000000D+00  0.0000000000000D+00
   329  3.2800000000000D+00  0.0000000000000D+00  0.0000000000000D+00
   330  3.2900000000000D+00  0.0000000000000D+00  0.0000000000000D+00
   331  3.3000000000000D+00  0.0000000000000D+00  0.0000000000000D+00
   332  3.3100000000000D+00  0.0000000000000D+00  0.0000000000000D+00
   333  3.3200000000000D+00  0.0000000000000D+00  0.0000000000000D+00
   334  3.3300000000000D+00  0.0000000000000D+00  0.0000000000000D+00
   335  3.3400000000000D+00  0.0000000000000D+00  0.0000000000000D+00
   336  3.3500000000000D+00  0.0000000000000D+00  0.0000000000000D+00
   337  3.3600000000000D+00  0.0000000000000D+00  0.0000000000000D+00
   338  3.3700000000000D+00  0.0000000000000D+00  0.0000000000000D+00
   339  3.3800000000000D+00  0.0000000000000D+00  0.0000000000000D+00
   340  3.3900000000000D+00  0.0000000000000D+00  0.0000000000000D+00
   341  3.4000000000000D+00  0.0000000000000D+00  0.0000000000000D+00
   342  3.4100000000000D+00  0.0000000000000D+00  0.0000000000000D+00
   343  3.4200000000000D+00  0.0000000000000D+00  0.0000000000000D+00
   344  3.4300000000000D+00  0.0000000000000D+00  0.0000000000000D+00
   345  3.4400000000000D+00  0.0000000000000D+00  0.0000000000000D+00
   346  3.4500000000000D+00  0.0000000000000D+00  0.0000000000000D+00
   347  3.4600000000000D+00  0.0000000000000D+00  0.0000000000000D+00
   348  3.4700000000000D+00  0.0000000000000D+00  0.0000000000000D+00
   349  3.4800000000000D+00  0.0000000000000D+00  0.0000000000000D+00
   350  3.4900000000000D+00  0.0000000000000D+00  0.0000000000000D+00
   351  3.5000000000000D+00  0.0000000000000D+00  0.0000000000000D+00
   352  3.5100000000000D+00  0.0000000000000D+00  0.0000000000000D+00
   353  3.5200000000000D+00  0.0000000000000D+00  0.0000000000000D+00
   354  3.5300000000000D+00  0.0000000000000D+00  0.0000000000000D+00
   355  3.5400000000000D+00  0.0000000000000D+00  0.0000000000000D+00
   356  3.5500000000000D+00  0.0000000000000D+00  0.0000000000000D+00
   357  3.5600000000000D+00  0.0000000000000D+00  0.0000000000000D+00
   358  3.5700000000000D+00  0.0000000000000D+00  0.0000000000000D+00
   359  3.5800000000000D+00  0.0000000000000D+00  0.0000000000000D+00
   360  3.5900000000000D+00  0.0000000000000D+00  0.0000000000000D+00
   361  3.6000000000000D+00  0.0000000000000D+00  0.0000000000000D+00
   362  3.6100000000000D+00  0.0000000000000D+00  0.0000000000000D+00
   363  3.6200000000000D+00  0.0000000000000D+00  0.0000000000000D+00
   364  3.6300000000000D+00  0.0000000000000D+00  0.0000000000000D+00
   365  3.6400000000000D+00  0.0000000000000D+00  0.0000000000000D+00
   366  3.6500000000000D+00  0.0000000000000D+00  0.0000000000000D+00
   367  3.6600000000000D+00  0.0000000000000D+00  0.0000000000000D+00
   368  3.6700000000000D+00  0.0000000000000D+00  0.0000000000000D+00
   369  3.6800000000000D+00  0.0000000000000D+00  0.0000000000000D+00
   370  3.6900000000000D+00  0.0000000000000D+00  0.0000000000000D+00
   371  3.7000000000000D+00  0.0000000000000D+00  0.0000000000000D+00
   372  3.7100000000000D+00  0.0000000000000D+00  0.0000000000000D+00
   373  3.7200000000000D+00  0.0000000000000D+00  0.0000000000000D+00
   374  3.7300000000000D+00  0.0000000000000D+00  0.0000000000000D+00
   375  3.7400000000000D+00  0.0000000000000D+00  0.0000000000000D+00
   376  3.7500000000000D+00  0.0000000000000D+00  0.0000000000000D+00
   377  3.7600000000000D+00  0.0000000000000D+00  0.0000000000000D+00
   378  3.7700000000000D+00  0.0000000000000D+00  0.0000000000000D+00
   379  3.7800000000000D+00  0.0000000000000D+00  0.0000000000000D+00
   380  3.7900000000000D+00  0.0000000000000D+00  0.0000000000000D+00
   381  3.8000000000000D+00  0.0000000000000D+00  0.0000000000000D+00
   382  3.8100000000000D+00  0.0000000000000D+00  0.0000000000000D+00
   383  3.8200000000000D+00  0.0000000000000D+00  0.0000000000000D+00
   384  3.8300000000000D+00  0.0000000000000D+00  0.0000000000000D+00
   385  3.8400000000000D+00  0.0000000000000D+00  0.0000000000000D+00
   386  3.8500000000000D+00  0.0000000000000D+00  0.0000000000000D+00
   387  3.8600000000000D+00  0.0000000000000D+00  0.0000000000000D+00
   388  3.8700000000000D+00  0.0000000000000D+00  0.0000000000000D+00
   389  3.8800000000000D+00  0.0000000000000D+00  0.0000000000000D+00
   390  3.8900000000000D+00  0.0000000000000D+00  0.0000000000000D+00
   391  3.9000000000000D+00  0.0000000000000D+00  0.0000000000000D+00
   392  3.9100000000000D+00  0.0000000000000D+00  0.0000000000000D+00
   393  3.9200000000000D+00  0.0000000000000D+00  0.0000000000000D+00
   394  3.9300000000000D+00  0.0000000000000D+00  0.0000000000000D+00
   395  3.9400000000000D+00  0.0000000000000D+00  0.0000000000000D+00
   396  3.9500000000000D+00  0.0000000000000D+00  0.0000000000000D+00
   397  3.9600000000000D+00  0.0000000000000D+00  0.0000000000000D+00
   398  3.9700000000000D+00  0.0000000000000D+00  0.0000000000000D+00
   399  3.9800000000000D+00  0.0000000000000D+00  0.0000000000000D+00
   400  3.9900000000000D+00  0.0000000000000D+00  0.0000000000000D+00
   401  4.0000000000000D+00  0.0000000000000D+00  0.0000000000000D+00
   402  4.0100000000000D+00  0.0000000000000D+00  0.0000000000000D+00
   403  4.0200000000000D+00  0.0000000000000D+00  0.0000000000000D+00
   404  4.0300000000000D+00  0.0000000000000D+00  0.0000000000000D+00
   405  4.0400000000000D+00  0.0000000000000D+00  0.0000000000000D+00
   406  4.0500000000000D+00  0.0000000000000D+00  0.0000000000000D+00
   407  4.0600000000000D+00  0.0000000000000D+00  0.0000000000000D+00
   408  4.0700000000000D+00  0.0000000000000D+00  0.0000000000000D+00
   409  4.0800000000000D+00  0.0000000000000D+00  0.0000000000000D+00
   410  4.0900000000000D+00  0.0000000000000D+00  0.0000000000000D+00
   411  4.1000000000000D+00  0.0000000000000D+00  0.0000000000000D+00
   412  4.1100000000000D+00  0.0000000000000D+00  0.0000000000000D+00
   413  4.1200000000000D+00  0.0000000000000D+00  0.0000000000000D+00
   414  4.1300000000000D+00  0.0000000000000D+00  0.0000000000000D+00
   415  4.1400000000000D+00  0.0000000000000D+00  0.0000000000000D+00
   416  4.1500000000000D+00  0.0000000000000D+00  0.0000000000000D+00
   417  4.1600000000000D+00  0.0000000000000D+00  0.0000000000000D+00
   418  4.1700000000000D+00  0.0000000000000D+00  0.0000000000000D+00
   419  4.1800000000000D+00  0.0000000000000D+00  0.0000000000000D+00
   420  4.1900000000000D+00  0.0000000000000D+00  0.0000000000000D+00
   421  4.2000000000000D+00  0.0000000000000D+00  0.0000000000000D+00
   422  4.2100000000000D+00  0.0000000000000D+00  0.0000000000000D+00