Eu    ONCVPSP-3.3.0  r_core=   1.80418   1.50859   1.65965   1.72011
     63.0000     17.0000      220117    zatom,zion,pspd
     8      11   3     4   600     0    pspcod,pspxc,lmax,lloc,mmax,r2well
  5.99000000  0.00000000  0.00000000    rchrg fchrg qchrg
     2     2     2     2     0    nproj
     1     1           extension_switch
   0                         8.7199193738746D+00  5.6167889641547D-01
     1  0.0000000000000D+00 -4.9309889504912D-11  3.7479530590190D-10
     2  1.0000000000000D-02  4.2272827582964D-02 -2.0200691319577D-02
     3  2.0000000000000D-02  8.4502635008985D-02 -4.0278290601333D-02
     4  3.0000000000000D-02  1.2664651284285D-01 -6.0110758259302D-02
     5  4.0000000000000D-02  1.6866177198357D-01 -7.9578149360055D-02
     6  5.0000000000000D-02  2.1050605107093D-01 -9.8563635416719D-02
     7  6.0000000000000D-02  2.5213742061468D-01 -1.1695449581151D-01
     8  7.0000000000000D-02  2.9351448281228D-01 -1.3464306916580D-01
     9  8.0000000000000D-02  3.3459646607020D-01 -1.5152765535166D-01
    10  9.0000000000000D-02  3.7534331330498D-01 -1.6751335930092D-01
    11  1.0000000000000D-01  4.1571576317135D-01 -1.8251286831442D-01
    12  1.1000000000000D-01  4.5567542344661D-01 -1.9644715519884D-01
    13  1.2000000000000D-01  4.9518483589160D-01 -2.0924610025772D-01
    14  1.3000000000000D-01  5.3420753200794D-01 -2.2084902592940D-01
    15  1.4000000000000D-01  5.7270807921828D-01 -2.3120513869243D-01
    16  1.5000000000000D-01  6.1065211710956D-01 -2.4027387373996D-01
    17  1.6000000000000D-01  6.4800638349807D-01 -2.4802513885203D-01
    18  1.7000000000000D-01  6.8473873019759D-01 -2.5443945485991D-01
    19  1.8000000000000D-01  7.2081812849753D-01 -2.5950799109128D-01
    20  1.9000000000000D-01  7.5621466448483D-01 -2.6323249519982D-01
    21  2.0000000000000D-01  7.9089952447077D-01 -2.6562511780958D-01
    22  2.1000000000000D-01  8.2484497090950D-01 -2.6670813343260D-01
    23  2.2000000000000D-01  8.5802430931886D-01 -2.6651356013942D-01
    24  2.3000000000000D-01  8.9041184683336D-01 -2.6508268146661D-01
    25  2.4000000000000D-01  9.2198284313370D-01 -2.6246547502296D-01
    26  2.5000000000000D-01  9.5271345460477D-01 -2.5871995319898D-01
    27  2.6000000000000D-01  9.8258067267405D-01 -2.5391142228227D-01
    28  2.7000000000000D-01  1.0115622573733D+00 -2.4811166712537D-01
    29  2.8000000000000D-01  1.0396366672471D+00 -2.4139806929679D-01
    30  2.9000000000000D-01  1.0667829868003D+00 -2.3385266735791D-01
    31  3.0000000000000D-01  1.0929808527363D+00 -2.2556116854540D-01
    32  3.1000000000000D-01  1.1182103802772D+00 -2.1661192169064D-01
    33  3.2000000000000D-01  1.1424520908925D+00 -2.0709486166961D-01
    34  3.3000000000000D-01  1.1656868427741D+00 -1.9710043604353D-01
    35  3.4000000000000D-01  1.1878957653980D+00 -1.8671852481628D-01
    36  3.5000000000000D-01  1.2090601994975D+00 -1.7603736439758D-01
    37  3.6000000000000D-01  1.2291616437409D+00 -1.6514248691597D-01
    38  3.7000000000000D-01  1.2481817093628D+00 -1.5411568597270D-01
    39  3.8000000000000D-01  1.2661020839318D+00 -1.4303401976424D-01
    40  3.9000000000000D-01  1.2829045053636D+00 -1.3196886222964D-01
    41  4.0000000000000D-01  1.2985707471935D+00 -1.2098501249657D-01
    42  4.1000000000000D-01  1.3130826160161D+00 -1.1013987241444D-01
    43  4.2000000000000D-01  1.3264219618779D+00 -9.9482701371091D-02
    44  4.3000000000000D-01  1.3385707022774D+00 -8.9053956902231D-02
    45  4.4000000000000D-01  1.3495108602781D+00 -7.8884728819678D-02
    46  4.5000000000000D-01  1.3592246170891D+00 -6.8996273715485D-02
    47  4.6000000000000D-01  1.3676943792974D+00 -5.9399655750742D-02
    48  4.7000000000000D-01  1.3749028607691D+00 -5.0095498616864D-02
    49  4.8000000000000D-01  1.3808331790530D+00 -4.1073852475212D-02
    50  4.9000000000000D-01  1.3854689659434D+00 -3.2314178546307D-02
    51  5.0000000000000D-01  1.3887944916677D+00 -2.3785452842860D-02
    52  5.1000000000000D-01  1.3907948019850D+00 -1.5446389334661D-02
    53  5.2000000000000D-01  1.3914558672945D+00 -7.2457816079283D-03
    54  5.3000000000000D-01  1.3907647426743D+00  8.7703915023689D-04
    55  5.4000000000000D-01  1.3887097375979D+00  8.9916332357504D-03
    56  5.5000000000000D-01  1.3852805939073D+00  1.7175773180467D-02
    57  5.6000000000000D-01  1.3804686704689D+00  2.5514661947767D-02
    58  5.7000000000000D-01  1.3742671327919D+00  3.4100055473604D-02
    59  5.8000000000000D-01  1.3666711457594D+00  4.3029297528064D-02
    60  5.9000000000000D-01  1.3576780675118D+00  5.2404275872545D-02
    61  6.0000000000000D-01  1.3472876424198D+00  6.2330309609930D-02
    62  6.1000000000000D-01  1.3355021910151D+00  7.2914978449971D-02
    63  6.2000000000000D-01  1.3223267946856D+00  8.4266905337528D-02
    64  6.3000000000000D-01  1.3077694729110D+00  9.6494504502059D-02
    65  6.4000000000000D-01  1.2918413508067D+00  1.0970470747504D-01
    66  6.5000000000000D-01  1.2745568147533D+00  1.2400167998440D-01
    67  6.6000000000000D-01  1.2559336539360D+00  1.3948554285897D-01
    68  6.7000000000000D-01  1.2359931856752D+00  1.5625111016310D-01
    69  6.8000000000000D-01  1.2147603625280D+00  1.7438665772296D-01
    70  6.9000000000000D-01  1.1922638592515D+00  1.9397273500396D-01
    71  7.0000000000000D-01  1.1685361378614D+00  2.1508103295300D-01
    72  7.1000000000000D-01  1.1436134891863D+00  2.3777331992524D-01
    73  7.2000000000000D-01  1.1175360495057D+00  2.6210045718638D-01
    74  7.3000000000000D-01  1.0903477910706D+00  2.8810150471326D-01
    75  7.4000000000000D-01  1.0620964855383D+00  3.1580292711842D-01
    76  7.5000000000000D-01  1.0328336395991D+00  3.4521790851340D-01
    77  7.6000000000000D-01  1.0026144023424D+00  3.7634578399181D-01
    78  7.7000000000000D-01  9.7149744418529D-01  4.0917159419230D-01
    79  7.8000000000000D-01  9.3954480747835D-01  4.4366576808834D-01
    80  7.9000000000000D-01  9.0682172920051D-01  4.7978393776904D-01
    81  8.0000000000000D-01  8.7339643645706D-01  5.1746688753638D-01
    82  8.1000000000000D-01  8.3933991579827D-01  5.5664063816669D-01
    83  8.2000000000000D-01  8.0472565767697D-01  5.9721666568550D-01
    84  8.3000000000000D-01  7.6962937765837D-01  6.3909225250374D-01
    85  8.4000000000000D-01  7.3412871628038D-01  6.8215096727811D-01
    86  8.5000000000000D-01  6.9830291973428D-01  7.2626326840989D-01
    87  8.6000000000000D-01  6.6223250378963D-01  7.7128722470287D-01
    88  8.7000000000000D-01  6.2599890362044D-01  8.1706934538247D-01
    89  8.8000000000000D-01  5.8968411239796D-01  8.6344551045290D-01
    90  8.9000000000000D-01  5.5337031169591D-01  9.1024199125687D-01
    91  9.0000000000000D-01  5.1713949690264D-01  9.5727655011829D-01
    92  9.1000000000000D-01  4.8107310094953D-01  1.0043596071113D+00
    93  9.2000000000000D-01  4.4525161974217D-01  1.0512954613211D+00
    94  9.3000000000000D-01  4.0975424271898D-01  1.0978835534587D+00
    95  9.4000000000000D-01  3.7465849195827D-01  1.1439197563721D+00
    96  9.5000000000000D-01  3.4003987320849D-01  1.1891976798728D+00
    97  9.6000000000000D-01  3.0597154212562D-01  1.2335099763679D+00
    98  9.7000000000000D-01  2.7252398886657D-01  1.2766496340718D+00
    99  9.8000000000000D-01  2.3976474400762D-01  1.3184112450525D+00
   100  9.9000000000000D-01  2.0775810852888D-01  1.3585922360723D+00
   101  1.0000000000000D+00  1.7656491034921D-01  1.3969940510339D+00
   102  1.0100000000000D+00  1.4624228957285D-01  1.4334232749738D+00
   103  1.0200000000000D+00  1.1684351427123D-01  1.4676926907727D+00
   104  1.0300000000000D+00  8.8417828235747D-02  1.4996222611979D+00
   105  1.0400000000000D+00  6.1010331724250D-02  1.5290400304567D+00
   106  1.0500000000000D+00  3.4661895757582D-02  1.5557829412351D+00
   107  1.0600000000000D+00  9.4091101054517D-03  1.5796975648120D+00
   108  1.0700000000000D+00 -1.4715735450700D-02  1.6006407439904D+00
   109  1.0800000000000D+00 -3.7684637446330D-02  1.6184801503664D+00
   110  1.0900000000000D+00 -5.9473834040725D-02  1.6330947594797D+00
   111  1.1000000000000D+00 -8.0063731217792D-02  1.6443752494337D+00
   112  1.1100000000000D+00 -9.9438802215449D-02  1.6522243301883D+00
   113  1.1200000000000D+00 -1.1758746310693D-01  1.6565570129586D+00
   114  1.1300000000000D+00 -1.3450192782958D-01  1.6573008305242D+00
   115  1.1400000000000D+00 -1.5017804643782D-01  1.6543960209628D+00
   116  1.1500000000000D+00 -1.6461513065271D-01  1.6477956883527D+00
   117  1.1600000000000D+00 -1.7781577122201D-01  1.6374659554006D+00
   118  1.1700000000000D+00 -1.8978565180312D-01  1.6233861234459D+00
   119  1.1800000000000D+00 -2.0053336428535D-01  1.6055488555900D+00
   120  1.1900000000000D+00 -2.1007023060539D-01  1.5839603989810D+00
   121  1.2000000000000D+00 -2.1841013616960D-01  1.5586408616695D+00
   122  1.2100000000000D+00 -2.2556937984453D-01  1.5296245581968D+00
   123  1.2200000000000D+00 -2.3156654538465D-01  1.4969604370937D+00
   124  1.2300000000000D+00 -2.3642239890439D-01  1.4607126014020D+00
   125  1.2400000000000D+00 -2.4015981642797D-01  1.4209609297963D+00
   126  1.2500000000000D+00 -2.4280374504953D-01  1.3778018028937D+00
   127  1.2600000000000D+00 -2.4438120084466D-01  1.3313489368356D+00
   128  1.2700000000000D+00 -2.4492130522788D-01  1.2817343180731D+00
   129  1.2800000000000D+00 -2.4445536064100D-01  1.2291092289044D+00
   130  1.2900000000000D+00 -2.4301696599856D-01  1.1736453505754D+00
   131  1.3000000000000D+00 -2.4064216946253D-01  1.1155359153793D+00
   132  1.3100000000000D+00 -2.3736965544293D-01  1.0549968757064D+00
   133  1.3200000000000D+00 -2.3324096181339D-01  9.9226805293620D-01
   134  1.3300000000000D+00 -2.2830071860991D-01  9.2761420429474D-01
   135  1.3400000000000D+00 -2.2259690005669D-01  8.6132594887109D-01
   136  1.3500000000000D+00 -2.1618107883624D-01  7.9372047849961D-01
   137  1.3600000000000D+00 -2.0910866508604D-01  7.2514194595538D-01
   138  1.3700000000000D+00 -2.0143911667153D-01  6.5596144390766D-01
   139  1.3800000000000D+00 -1.9323609732614D-01  5.8657643647983D-01
   140  1.3900000000000D+00 -1.8456755671945D-01  5.1740949237345D-01
   141  1.4000000000000D+00 -1.7550571015117D-01  4.4890618711344D-01
   142  1.4100000000000D+00 -1.6612687691215D-01  3.8153194592766D-01
   143  1.4200000000000D+00 -1.5651114728107D-01  3.1576765503384D-01
   144  1.4300000000000D+00 -1.4674183414508D-01  2.5210379714797D-01
   145  1.4400000000000D+00 -1.3690465586512D-01  1.9103281876294D-01
   146  1.4500000000000D+00 -1.2708661138836D-01  1.3303951088611D-01
   147  1.4600000000000D+00 -1.1737445414324D-01  7.8588864166905D-02
   148  1.4700000000000D+00 -1.0785281036120D-01  2.8111861779565D-02
   149  1.4800000000000D+00 -9.8601460116927D-02 -1.8014274342725D-02
   150  1.4900000000000D+00 -8.9693126380404D-02 -5.9481139179670D-02
   151  1.5000000000000D+00 -8.1188839474342D-02 -9.6080844812770D-02
   152  1.5100000000000D+00 -7.3131545099724D-02 -1.2775143336430D-01
   153  1.5200000000000D+00 -6.5548179667317D-02 -1.5455234104892D-01
   154  1.5300000000000D+00 -5.8451401591872D-02 -1.7664308170716D-01
   155  1.5400000000000D+00 -5.1846213872394D-02 -1.9422976763589D-01
   156  1.5500000000000D+00 -4.5734498072825D-02 -2.0752791693394D-01
   157  1.5600000000000D+00 -4.0113095075810D-02 -2.1677843414808D-01
   158  1.5700000000000D+00 -3.4974256757695D-02 -2.2224462189022D-01
   159  1.5800000000000D+00 -3.0306268294094D-02 -2.2420738766797D-01
   160  1.5900000000000D+00 -2.6093724134570D-02 -2.2296362763212D-01
   161  1.6000000000000D+00 -2.2317977475000D-02 -2.1882321056027D-01
   162  1.6100000000000D+00 -1.8957555819712D-02 -2.1210630385282D-01
   163  1.6200000000000D+00 -1.5988604709836D-02 -2.0314052166930D-01
   164  1.6300000000000D+00 -1.3385344060718D-02 -1.9225801478872D-01
   165  1.6400000000000D+00 -1.1120532299712D-02 -1.7979252999804D-01
   166  1.6500000000000D+00 -9.1659343463138D-03 -1.6607646223268D-01
   167  1.6600000000000D+00 -7.4927893466398D-03 -1.5143792288871D-01
   168  1.6700000000000D+00 -6.0722728089665D-03 -1.3619785607004D-01
   169  1.6800000000000D+00 -4.8759500054022D-03 -1.2066722069376D-01
   170  1.6900000000000D+00 -3.8762164347233D-03 -1.0514426175592D-01
   171  1.7000000000000D+00 -3.0467226597434D-03 -8.9911886844518D-02
   172  1.7100000000000D+00 -2.3627739028748D-03 -7.5235206303490D-02
   173  1.7200000000000D+00 -1.8017066145339D-03 -6.1359222001902D-02
   174  1.7300000000000D+00 -1.3432375303721D-03 -4.8506688074282D-02
   175  1.7400000000000D+00 -9.6978396256513D-04 -3.6876153391836D-02
   176  1.7500000000000D+00 -6.6692928854971D-04 -2.6649317882465D-02
   177  1.7600000000000D+00 -4.2280049035562D-04 -1.7946966360628D-02
   178  1.7700000000000D+00 -2.2942419078351D-04 -1.0849613556045D-02
   179  1.7800000000000D+00 -8.3434186376454D-05 -5.5773845934420D-03
   180  1.7900000000000D+00  1.7091228055393D-05 -2.2754223567627D-03
   181  1.8000000000000D+00  6.6796990297692D-05 -6.2041521199220D-04
   182  1.8100000000000D+00  6.0672930699820D-05 -2.1323001256188D-05
   183  1.8200000000000D+00  2.1946149477004D-05  4.8568227190175D-05
   184  1.8300000000000D+00 -6.7960031644689D-06 -2.1680296519085D-05
   185  1.8400000000000D+00 -7.7495928149980D-06 -3.0449122044349D-05
   186  1.8500000000000D+00  7.8870610802189D-07  1.7047921906122D-06
   187  1.8600000000000D+00  1.9885825220361D-06  4.9785813639779D-06
   188  1.8700000000000D+00 -3.0929686331871D-09  1.2144130115222D-08
   189  1.8800000000000D+00 -2.0335559720701D-07  7.9844871546459D-07
   190  1.8900000000000D+00 -6.2030367827722D-08  2.4355399208129D-07
   191  1.9000000000000D+00  0.0000000000000D+00  0.0000000000000D+00
   192  1.9100000000000D+00  0.0000000000000D+00  0.0000000000000D+00
   193  1.9200000000000D+00  0.0000000000000D+00  0.0000000000000D+00
   194  1.9300000000000D+00  0.0000000000000D+00  0.0000000000000D+00
   195  1.9400000000000D+00  0.0000000000000D+00  0.0000000000000D+00
   196  1.9500000000000D+00  0.0000000000000D+00  0.0000000000000D+00
   197  1.9600000000000D+00  0.0000000000000D+00  0.0000000000000D+00
   198  1.9700000000000D+00  0.0000000000000D+00  0.0000000000000D+00
   199  1.9800000000000D+00  0.0000000000000D+00  0.0000000000000D+00
   200  1.9900000000000D+00  0.0000000000000D+00  0.0000000000000D+00
   201  2.0000000000000D+00  0.0000000000000D+00  0.0000000000000D+00
   202  2.0100000000000D+00  0.0000000000000D+00  0.0000000000000D+00
   203  2.0200000000000D+00  0.0000000000000D+00  0.0000000000000D+00
   204  2.0300000000000D+00  0.0000000000000D+00  0.0000000000000D+00
   205  2.0400000000000D+00  0.0000000000000D+00  0.0000000000000D+00
   206  2.0500000000000D+00  0.0000000000000D+00  0.0000000000000D+00
   207  2.0600000000000D+00  0.0000000000000D+00  0.0000000000000D+00
   208  2.0700000000000D+00  0.0000000000000D+00  0.0000000000000D+00
   209  2.0800000000000D+00  0.0000000000000D+00  0.0000000000000D+00
   210  2.0900000000000D+00  0.0000000000000D+00  0.0000000000000D+00
   211  2.1000000000000D+00  0.0000000000000D+00  0.0000000000000D+00
   212  2.1100000000000D+00  0.0000000000000D+00  0.0000000000000D+00
   213  2.1200000000000D+00  0.0000000000000D+00  0.0000000000000D+00
   214  2.1300000000000D+00  0.0000000000000D+00  0.0000000000000D+00
   215  2.1400000000000D+00  0.0000000000000D+00  0.0000000000000D+00
   216  2.1500000000000D+00  0.0000000000000D+00  0.0000000000000D+00
   217  2.1600000000000D+00  0.0000000000000D+00  0.0000000000000D+00
   218  2.1700000000000D+00  0.0000000000000D+00  0.0000000000000D+00
   219  2.1800000000000D+00  0.0000000000000D+00  0.0000000000000D+00
   220  2.1900000000000D+00  0.0000000000000D+00  0.0000000000000D+00
   221  2.2000000000000D+00  0.0000000000000D+00  0.0000000000000D+00
   222  2.2100000000000D+00  0.0000000000000D+00  0.0000000000000D+00
   223  2.2200000000000D+00  0.0000000000000D+00  0.0000000000000D+00
   224  2.2300000000000D+00  0.0000000000000D+00  0.0000000000000D+00
   225  2.2400000000000D+00  0.0000000000000D+00  0.0000000000000D+00
   226  2.2500000000000D+00  0.0000000000000D+00  0.0000000000000D+00
   227  2.2600000000000D+00  0.0000000000000D+00  0.0000000000000D+00
   228  2.2700000000000D+00  0.0000000000000D+00  0.0000000000000D+00
   229  2.2800000000000D+00  0.0000000000000D+00  0.0000000000000D+00
   230  2.2900000000000D+00  0.0000000000000D+00  0.0000000000000D+00
   231  2.3000000000000D+00  0.0000000000000D+00  0.0000000000000D+00
   232  2.3100000000000D+00  0.0000000000000D+00  0.0000000000000D+00
   233  2.3200000000000D+00  0.0000000000000D+00  0.0000000000000D+00
   234  2.3300000000000D+00  0.0000000000000D+00  0.0000000000000D+00
   235  2.3400000000000D+00  0.0000000000000D+00  0.0000000000000D+00
   236  2.3500000000000D+00  0.0000000000000D+00  0.0000000000000D+00
   237  2.3600000000000D+00  0.0000000000000D+00  0.0000000000000D+00
   238  2.3700000000000D+00  0.0000000000000D+00  0.0000000000000D+00
   239  2.3800000000000D+00  0.0000000000000D+00  0.0000000000000D+00
   240  2.3900000000000D+00  0.0000000000000D+00  0.0000000000000D+00
   241  2.4000000000000D+00  0.0000000000000D+00  0.0000000000000D+00
   242  2.4100000000000D+00  0.0000000000000D+00  0.0000000000000D+00
   243  2.4200000000000D+00  0.0000000000000D+00  0.0000000000000D+00
   244  2.4300000000000D+00  0.0000000000000D+00  0.0000000000000D+00
   245  2.4400000000000D+00  0.0000000000000D+00  0.0000000000000D+00
   246  2.4500000000000D+00  0.0000000000000D+00  0.0000000000000D+00
   247  2.4600000000000D+00  0.0000000000000D+00  0.0000000000000D+00
   248  2.4700000000000D+00  0.0000000000000D+00  0.0000000000000D+00
   249  2.4800000000000D+00  0.0000000000000D+00  0.0000000000000D+00
   250  2.4900000000000D+00  0.0000000000000D+00  0.0000000000000D+00
   251  2.5000000000000D+00  0.0000000000000D+00  0.0000000000000D+00
   252  2.5100000000000D+00  0.0000000000000D+00  0.0000000000000D+00
   253  2.5200000000000D+00  0.0000000000000D+00  0.0000000000000D+00
   254  2.5300000000000D+00  0.0000000000000D+00  0.0000000000000D+00
   255  2.5400000000000D+00  0.0000000000000D+00  0.0000000000000D+00
   256  2.5500000000000D+00  0.0000000000000D+00  0.0000000000000D+00
   257  2.5600000000000D+00  0.0000000000000D+00  0.0000000000000D+00
   258  2.5700000000000D+00  0.0000000000000D+00  0.0000000000000D+00
   259  2.5800000000000D+00  0.0000000000000D+00  0.0000000000000D+00
   260  2.5900000000000D+00  0.0000000000000D+00  0.0000000000000D+00
   261  2.6000000000000D+00  0.0000000000000D+00  0.0000000000000D+00
   262  2.6100000000000D+00  0.0000000000000D+00  0.0000000000000D+00
   263  2.6200000000000D+00  0.0000000000000D+00  0.0000000000000D+00
   264  2.6300000000000D+00  0.0000000000000D+00  0.0000000000000D+00
   265  2.6400000000000D+00  0.0000000000000D+00  0.0000000000000D+00
   266  2.6500000000000D+00  0.0000000000000D+00  0.0000000000000D+00
   267  2.6600000000000D+00  0.0000000000000D+00  0.0000000000000D+00
   268  2.6700000000000D+00  0.0000000000000D+00  0.0000000000000D+00
   269  2.6800000000000D+00  0.0000000000000D+00  0.0000000000000D+00
   270  2.6900000000000D+00  0.0000000000000D+00  0.0000000000000D+00
   271  2.7000000000000D+00  0.0000000000000D+00  0.0000000000000D+00
   272  2.7100000000000D+00  0.0000000000000D+00  0.0000000000000D+00
   273  2.7200000000000D+00  0.0000000000000D+00  0.0000000000000D+00
   274  2.7300000000000D+00  0.0000000000000D+00  0.0000000000000D+00
   275  2.7400000000000D+00  0.0000000000000D+00  0.0000000000000D+00
   276  2.7500000000000D+00  0.0000000000000D+00  0.0000000000000D+00
   277  2.7600000000000D+00  0.0000000000000D+00  0.0000000000000D+00
   278  2.7700000000000D+00  0.0000000000000D+00  0.0000000000000D+00
   279  2.7800000000000D+00  0.0000000000000D+00  0.0000000000000D+00
   280  2.7900000000000D+00  0.0000000000000D+00  0.0000000000000D+00
   281  2.8000000000000D+00  0.0000000000000D+00  0.0000000000000D+00
   282  2.8100000000000D+00  0.0000000000000D+00  0.0000000000000D+00
   283  2.8200000000000D+00  0.0000000000000D+00  0.0000000000000D+00
   284  2.8300000000000D+00  0.0000000000000D+00  0.0000000000000D+00
   285  2.8400000000000D+00  0.0000000000000D+00  0.0000000000000D+00
   286  2.8500000000000D+00  0.0000000000000D+00  0.0000000000000D+00
   287  2.8600000000000D+00  0.0000000000000D+00  0.0000000000000D+00
   288  2.8700000000000D+00  0.0000000000000D+00  0.0000000000000D+00
   289  2.8800000000000D+00  0.0000000000000D+00  0.0000000000000D+00
   290  2.8900000000000D+00  0.0000000000000D+00  0.0000000000000D+00
   291  2.9000000000000D+00  0.0000000000000D+00  0.0000000000000D+00
   292  2.9100000000000D+00  0.0000000000000D+00  0.0000000000000D+00
   293  2.9200000000000D+00  0.0000000000000D+00  0.0000000000000D+00
   294  2.9300000000000D+00  0.0000000000000D+00  0.0000000000000D+00
   295  2.9400000000000D+00  0.0000000000000D+00  0.0000000000000D+00
   296  2.9500000000000D+00  0.0000000000000D+00  0.0000000000000D+00
   297  2.9600000000000D+00  0.0000000000000D+00  0.0000000000000D+00
   298  2.9700000000000D+00  0.0000000000000D+00  0.0000000000000D+00
   299  2.9800000000000D+00  0.0000000000000D+00  0.0000000000000D+00
   300  2.9900000000000D+00  0.0000000000000D+00  0.0000000000000D+00
   301  3.0000000000000D+00  0.0000000000000D+00  0.0000000000000D+00
   302  3.0100000000000D+00  0.0000000000000D+00  0.0000000000000D+00
   303  3.0200000000000D+00  0.0000000000000D+00  0.0000000000000D+00
   304  3.0300000000000D+00  0.0000000000000D+00  0.0000000000000D+00
   305  3.0400000000000D+00  0.0000000000000D+00  0.0000000000000D+00
   306  3.0500000000000D+00  0.0000000000000D+00  0.0000000000000D+00
   307  3.0600000000000D+00  0.0000000000000D+00  0.0000000000000D+00
   308  3.0700000000000D+00  0.0000000000000D+00  0.0000000000000D+00
   309  3.0800000000000D+00  0.0000000000000D+00  0.0000000000000D+00
   310  3.0900000000000D+00  0.0000000000000D+00  0.0000000000000D+00
   311  3.1000000000000D+00  0.0000000000000D+00  0.0000000000000D+00
   312  3.1100000000000D+00  0.0000000000000D+00  0.0000000000000D+00
   313  3.1200000000000D+00  0.0000000000000D+00  0.0000000000000D+00
   314  3.1300000000000D+00  0.0000000000000D+00  0.0000000000000D+00
   315  3.1400000000000D+00  0.0000000000000D+00  0.0000000000000D+00
   316  3.1500000000000D+00  0.0000000000000D+00  0.0000000000000D+00
   317  3.1600000000000D+00  0.0000000000000D+00  0.0000000000000D+00
   318  3.1700000000000D+00  0.0000000000000D+00  0.0000000000000D+00
   319  3.1800000000000D+00  0.0000000000000D+00  0.0000000000000D+00
   320  3.1900000000000D+00  0.0000000000000D+00  0.0000000000000D+00
   321  3.2000000000000D+00  0.0000000000000D+00  0.0000000000000D+00
   322  3.2100000000000D+00  0.0000000000000D+00  0.0000000000000D+00
   323  3.2200000000000D+00  0.0000000000000D+00  0.0000000000000D+00
   324  3.2300000000000D+00  0.0000000000000D+00  0.0000000000000D+00
   325  3.2400000000000D+00  0.0000000000000D+00  0.0000000000000D+00
   326  3.2500000000000D+00  0.0000000000000D+00  0.0000000000000D+00
   327  3.2600000000000D+00  0.0000000000000D+00  0.0000000000000D+00
   328  3.2700000000000D+00  0.0000000000000D+00  0.0000000000000D+00
   329  3.2800000000000D+00  0.0000000000000D+00  0.0000000000000D+00
   330  3.2900000000000D+00  0.0000000000000D+00  0.0000000000000D+00
   331  3.3000000000000D+00  0.0000000000000D+00  0.0000000000000D+00
   332  3.3100000000000D+00  0.0000000000000D+00  0.0000000000000D+00
   333  3.3200000000000D+00  0.0000000000000D+00  0.0000000000000D+00
   334  3.3300000000000D+00  0.0000000000000D+00  0.0000000000000D+00
   335  3.3400000000000D+00  0.0000000000000D+00  0.0000000000000D+00
   336  3.3500000000000D+00  0.0000000000000D+00  0.0000000000000D+00
   337  3.3600000000000D+00  0.0000000000000D+00  0.0000000000000D+00
   338  3.3700000000000D+00  0.0000000000000D+00  0.0000000000000D+00
   339  3.3800000000000D+00  0.0000000000000D+00  0.0000000000000D+00
   340  3.3900000000000D+00  0.0000000000000D+00  0.0000000000000D+00
   341  3.4000000000000D+00  0.0000000000000D+00  0.0000000000000D+00
   342  3.4100000000000D+00  0.0000000000000D+00  0.0000000000000D+00
   343  3.4200000000000D+00  0.0000000000000D+00  0.0000000000000D+00
   344  3.4300000000000D+00  0.0000000000000D+00  0.0000000000000D+00
   345  3.4400000000000D+00  0.0000000000000D+00  0.0000000000000D+00
   346  3.4500000000000D+00  0.0000000000000D+00  0.0000000000000D+00
   347  3.4600000000000D+00  0.0000000000000D+00  0.0000000000000D+00
   348  3.4700000000000D+00  0.0000000000000D+00  0.0000000000000D+00
   349  3.4800000000000D+00  0.0000000000000D+00  0.0000000000000D+00
   350  3.4900000000000D+00  0.0000000000000D+00  0.0000000000000D+00
   351  3.5000000000000D+00  0.0000000000000D+00  0.0000000000000D+00
   352  3.5100000000000D+00  0.0000000000000D+00  0.0000000000000D+00
   353  3.5200000000000D+00  0.0000000000000D+00  0.0000000000000D+00
   354  3.5300000000000D+00  0.0000000000000D+00  0.0000000000000D+00
   355  3.5400000000000D+00  0.0000000000000D+00  0.0000000000000D+00
   356  3.5500000000000D+00  0.0000000000000D+00  0.0000000000000D+00
   357  3.5600000000000D+00  0.0000000000000D+00  0.0000000000000D+00
   358  3.5700000000000D+00  0.0000000000000D+00  0.0000000000000D+00
   359  3.5800000000000D+00  0.0000000000000D+00  0.0000000000000D+00
   360  3.5900000000000D+00  0.0000000000000D+00  0.0000000000000D+00
   361  3.6000000000000D+00  0.0000000000000D+00  0.0000000000000D+00
   362  3.6100000000000D+00  0.0000000000000D+00  0.0000000000000D+00
   363  3.6200000000000D+00  0.0000000000000D+00  0.0000000000000D+00
   364  3.6300000000000D+00  0.0000000000000D+00  0.0000000000000D+00
   365  3.6400000000000D+00  0.0000000000000D+00  0.0000000000000D+00
   366  3.6500000000000D+00  0.0000000000000D+00  0.0000000000000D+00
   367  3.6600000000000D+00  0.0000000000000D+00  0.0000000000000D+00
   368  3.6700000000000D+00  0.0000000000000D+00  0.0000000000000D+00
   369  3.6800000000000D+00  0.0000000000000D+00  0.0000000000000D+00
   370  3.6900000000000D+00  0.0000000000000D+00  0.0000000000000D+00
   371  3.7000000000000D+00  0.0000000000000D+00  0.0000000000000D+00
   372  3.7100000000000D+00  0.0000000000000D+00  0.0000000000000D+00
   373  3.7200000000000D+00  0.0000000000000D+00  0.0000000000000D+00
   374  3.7300000000000D+00  0.0000000000000D+00  0.0000000000000D+00
   375  3.7400000000000D+00  0.0000000000000D+00  0.0000000000000D+00
   376  3.7500000000000D+00  0.0000000000000D+00  0.0000000000000D+00
   377  3.7600000000000D+00  0.0000000000000D+00  0.0000000000000D+00
   378  3.7700000000000D+00  0.0000000000000D+00  0.0000000000000D+00
   379  3.7800000000000D+00  0.0000000000000D+00  0.0000000000000D+00
   380  3.7900000000000D+00  0.0000000000000D+00  0.0000000000000D+00
   381  3.8000000000000D+00  0.0000000000000D+00  0.0000000000000D+00
   382  3.8100000000000D+00  0.0000000000000D+00  0.0000000000000D+00
   383  3.8200000000000D+00  0.0000000000000D+00  0.0000000000000D+00
   384  3.8300000000000D+00  0.0000000000000D+00  0.0000000000000D+00
   385  3.8400000000000D+00  0.0000000000000D+00  0.0000000000000D+00
   386  3.8500000000000D+00  0.0000000000000D+00  0.0000000000000D+00
   387  3.8600000000000D+00  0.0000000000000D+00  0.0000000000000D+00
   388  3.8700000000000D+00  0.0000000000000D+00  0.0000000000000D+00
   389  3.8800000000000D+00  0.0000000000000D+00  0.0000000000000D+00
   390  3.8900000000000D+00  0.0000000000000D+00  0.0000000000000D+00
   391  3.9000000000000D+00  0.0000000000000D+00  0.0000000000000D+00
   392  3.9100000000000D+00  0.0000000000000D+00  0.0000000000000D+00
   393  3.9200000000000D+00  0.0000000000000D+00  0.0000000000000D+00
   394  3.9300000000000D+00  0.0000000000000D+00  0.0000000000000D+00
   395  3.9400000000000D+00  0.0000000000000D+00  0.0000000000000D+00
   396  3.9500000000000D+00  0.0000000000000D+00  0.0000000000000D+00
   397  3.9600000000000D+00  0.0000000000000D+00  0.0000000000000D+00
   398  3.9700000000000D+00  0.0000000000000D+00  0.0000000000000D+00
   399  3.9800000000000D+00  0.0000000000000D+00  0.0000000000000D+00
   400  3.9900000000000D+00  0.0000000000000D+00  0.0000000000000D+00
   401  4.0000000000000D+00  0.0000000000000D+00  0.0000000000000D+00
   402  4.0100000000000D+00  0.0000000000000D+00  0.0000000000000D+00
   403  4.0200000000000D+00  0.0000000000000D+00  0.0000000000000D+00
   404  4.0300000000000D+00  0.0000000000000D+00  0.0000000000000D+00
   405  4.0400000000000D+00  0.0000000000000D+00  0.0000000000000D+00
   406  4.0500000000000D+00  0.0000000000000D+00  0.0000000000000D+00
   407  4.0600000000000D+00  0.0000000000000D+00  0.0000000000000D+00
   408  4.0700000000000D+00  0.0000000000000D+00  0.0000000000000D+00
   409  4.0800000000000D+00  0.0000000000000D+00  0.0000000000000D+00
   410  4.0900000000000D+00  0.0000000000000D+00  0.0000000000000D+00
   411  4.1000000000000D+00  0.0000000000000D+00  0.0000000000000D+00
   412  4.1100000000000D+00  0.0000000000000D+00  0.0000000000000D+00
   413  4.1200000000000D+00  0.0000000000000D+00  0.0000000000000D+00
   414  4.1300000000000D+00  0.0000000000000D+00  0.0000000000000D+00
   415  4.1400000000000D+00  0.0000000000000D+00  0.0000000000000D+00
   416  4.1500000000000D+00  0.0000000000000D+00  0.0000000000000D+00
   417  4.1600000000000D+00  0.0000000000000D+00  0.0000000000000D+00
   418  4.1700000000000D+00  0.0000000000000D+00  0.0000000000000D+00
   419  4.1800000000000D+00  0.0000000000000D+00  0.0000000000000D+00
   420  4.1900000000000D+00  0.0000000000000D+00  0.0000000000000D+00
   421  4.2000000000000D+00  0.0000000000000D+00  0.0000000000000D+00
   422  4.2100000000000D+00  0.0000000000000D+00  0.0000000000000D+00