S     ONCVPSP-3.3.0  r_core=   1.45376   1.45376   1.61851
     16.0000      6.0000      220117    zatom,zion,pspd
     8      11   2     4   600     0    pspcod,pspxc,lmax,lloc,mmax,r2well
  5.99000000  0.00000000  0.00000000    rchrg fchrg qchrg
     2     2     2     0     0    nproj
     1     1           extension_switch
   0                         6.7639507507264D+00  5.7410804598115D-01
     1  0.0000000000000D+00 -8.0522830625540D-09  3.3041718194848D-08
     2  1.0000000000000D-02  5.0239532833012D-02 -4.9300395695919D-02
     3  2.0000000000000D-02  1.0021861510894D-01 -9.7649905899416D-02
     4  3.0000000000000D-02  1.4968171097693D-01 -1.4411780090451D-01
     5  4.0000000000000D-02  1.9838301106847D-01 -1.8781323966419D-01
     6  5.0000000000000D-02  2.4609104053190D-01 -2.2790416552967D-01
     7  6.0000000000000D-02  2.9259296670935D-01 -2.6363496785035D-01
     8  7.0000000000000D-02  3.3769851602603D-01 -2.9434253781290D-01
     9  8.0000000000000D-02  3.8124341771404D-01 -3.1947037993913D-01
    10  9.0000000000000D-02  4.2309230174863D-01 -3.3858048069369D-01
    11  1.0000000000000D-01  4.6314098963505D-01 -3.5136268186164D-01
    12  1.1000000000000D-01  5.0131812922264D-01 -3.5764135780958D-01
    13  1.2000000000000D-01  5.3758613828379D-01 -3.5737925139665D-01
    14  1.3000000000000D-01  5.7194143590411D-01 -3.5067838202736D-01
    15  1.4000000000000D-01  6.0441395549630D-01 -3.3777799994256D-01
    16  1.5000000000000D-01  6.3506594817274D-01 -3.1904962209683D-01
    17  1.6000000000000D-01  6.6399009998684D-01 -2.9498924562318D-01
    18  1.7000000000000D-01  6.9130700087965D-01 -2.6620689370201D-01
    19  1.8000000000000D-01  7.1716201675207D-01 -2.3341370442844D-01
    20  1.9000000000000D-01  7.4172162864679D-01 -1.9740682486802D-01
    21  2.0000000000000D-01  7.6516931430782D-01 -1.5905241884344D-01
    22  2.1000000000000D-01  7.8770105715673D-01 -1.1926713714761D-01
    23  2.2000000000000D-01  8.0952057578050D-01 -7.8998431995990D-02
    24  2.3000000000000D-01  8.3083437319493D-01 -3.9204122920056D-02
    25  2.4000000000000D-01  8.5184670930153D-01 -8.3163842221193D-04
    26  2.5000000000000D-01  8.7275460200030D-01  3.5202633811992D-02
    27  2.6000000000000D-01  8.9374296230917D-01  6.8033455719332D-02
    28  2.7000000000000D-01  9.1497996656693D-01  9.6865883495840D-02
    29  2.8000000000000D-01  9.3661276439793D-01  1.2099304283059D-01
    30  2.9000000000000D-01  9.5876361467615D-01  1.3981215583395D-01
    31  3.0000000000000D-01  9.8152653336477D-01  1.5283847496800D-01
    32  3.1000000000000D-01  1.0049645269885D+00  1.5971682071125D-01
    33  3.2000000000000D-01  1.0291074738166D+00  1.6023046751789D-01
    34  3.3000000000000D-01  1.0539507018259D+00  1.5430717591866D-01
    35  3.4000000000000D-01  1.0794542984323D+00  1.4202222630004D-01
    36  3.5000000000000D-01  1.1055431721102D+00  1.2359837083730D-01
    37  3.6000000000000D-01  1.1321078706519D+00  9.9402683028877D-02
    38  3.7000000000000D-01  1.1590061452761D+00  6.9940348009272D-02
    39  3.8000000000000D-01  1.1860652343747D+00  3.5845500027880D-02
    40  3.9000000000000D-01  1.2130848257170D+00 -2.1307251270322D-03
    41  4.0000000000000D-01  1.2398406417041D+00 -4.3134696641337D-02
    42  4.1000000000000D-01  1.2660885790894D+00 -8.6227073938232D-02
    43  4.2000000000000D-01  1.2915693227094D+00 -1.3040154180922D-01
    44  4.3000000000000D-01  1.3160133424668D+00 -1.7460512423138D-01
    45  4.4000000000000D-01  1.3391461742790D+00 -2.1775967067601D-01
    46  4.5000000000000D-01  1.3606938791438D+00 -2.5878408173662D-01
    47  4.6000000000000D-01  1.3803885700125D+00 -2.9661682255531D-01
    48  4.7000000000000D-01  1.3979738939127D+00 -3.3023826323122D-01
    49  4.8000000000000D-01  1.4132103567842D+00 -3.5869238539052D-01
    50  4.9000000000000D-01  1.4258803807868D+00 -3.8110740344765D-01
    51  5.0000000000000D-01  1.4357929883951D+00 -3.9671486766289D-01
    52  5.1000000000000D-01  1.4427880143136D+00 -4.0486684357620D-01
    53  5.2000000000000D-01  1.4467397550213D+00 -4.0505079828613D-01
    54  5.3000000000000D-01  1.4475599764211D+00 -3.9690186769186D-01
    55  5.4000000000000D-01  1.4452002124128D+00 -3.8021222935193D-01
    56  5.5000000000000D-01  1.4396533010046D+00 -3.5493736210045D-01
    57  5.6000000000000D-01  1.4309541195769D+00 -3.2119903498367D-01
    58  5.7000000000000D-01  1.4191794967421D+00 -2.7928493293006D-01
    59  5.8000000000000D-01  1.4044472947458D+00 -2.2964489416843D-01
    60  5.9000000000000D-01  1.3869146729824D+00 -1.7288380252992D-01
    61  6.0000000000000D-01  1.3667755598898D+00 -1.0975124618159D-01
    62  6.1000000000000D-01  1.3442573766014D+00 -4.1128120372310D-02
    63  6.2000000000000D-01  1.3196170712665D+00  3.1989584559325D-02
    64  6.3000000000000D-01  1.2931365372878D+00  1.0850950988561D-01
    65  6.4000000000000D-01  1.2651175017865D+00  1.8726381630669D-01
    66  6.5000000000000D-01  1.2358759820364D+00  2.6703183242494D-01
    67  6.6000000000000D-01  1.2057364171209D+00  3.4656402437592D-01
    68  6.7000000000000D-01  1.1750255895812D+00  4.2460681629704D-01
    69  6.8000000000000D-01  1.1440664570486D+00  4.9992776983192D-01
    70  6.9000000000000D-01  1.1131720167423D+00  5.7134061901031D-01
    71  7.0000000000000D-01  1.0826393261744D+00  6.3772965488175D-01
    72  7.1000000000000D-01  1.0527438013921D+00  6.9807296250377D-01
    73  7.2000000000000D-01  1.0237339096421D+00  7.5146403103416D-01
    74  7.3000000000000D-01  9.9582636651839D-01  7.9713128562573D-01
    75  7.4000000000000D-01  9.6920193860361D-01  8.3445512686313D-01
    76  7.5000000000000D-01  9.4400194144765D-01  8.6298210923518D-01
    77  7.6000000000000D-01  9.2032550966808D-01  8.8243594362575D-01
    78  7.7000000000000D-01  8.9822770129380D-01  8.9272506890285D-01
    79  7.8000000000000D-01  8.7771848241588D-01  8.9394660349466D-01
    80  7.9000000000000D-01  8.5876262110956D-01  8.8638655794057D-01
    81  8.0000000000000D-01  8.4128050176480D-01  8.7051626249492D-01
    82  8.1000000000000D-01  8.2514985275873D-01  8.4698503851198D-01
    83  8.2000000000000D-01  8.1020836217887D-01  8.1660921708885D-01
    84  8.3000000000000D-01  7.9625713842274D-01  7.8035768180835D-01
    85  8.4000000000000D-01  7.8306495530258D-01  7.3933418299034D-01
    86  8.5000000000000D-01  7.7037320515802D-01  6.9475673705100D-01
    87  8.6000000000000D-01  7.5790146866732D-01  6.4793448539055D-01
    88  8.7000000000000D-01  7.4535359695847D-01  6.0024244100153D-01
    89  8.8000000000000D-01  7.3242419044680D-01  5.5309459692755D-01
    90  8.9000000000000D-01  7.1880534983344D-01  5.0791590770309D-01
    91  9.0000000000000D-01  7.0419356806779D-01  4.6611368224067D-01
    92  9.1000000000000D-01  6.8829662798225D-01  4.2904894357583D-01
    93  9.2000000000000D-01  6.7084036881927D-01  3.9800831714703D-01
    94  9.3000000000000D-01  6.5157518605690D-01  3.7417700459628D-01
    95  9.4000000000000D-01  6.3028213279118D-01  3.5861338445530D-01
    96  9.5000000000000D-01  6.0677849739903D-01  3.5222575475178D-01
    97  9.6000000000000D-01  5.8092274117621D-01  3.5575169596155D-01
    98  9.7000000000000D-01  5.5261869096673D-01  3.6974048648274D-01
    99  9.8000000000000D-01  5.2181889524071D-01  3.9453894786290D-01
   100  9.9000000000000D-01  4.8852706756931D-01  4.3028103364365D-01
   101  1.0000000000000D+00  4.5279955830423D-01  4.7688140670261D-01
   102  1.0100000000000D+00  4.1474581338647D-01  5.3403317581044D-01
   103  1.0200000000000D+00  3.7452779893049D-01  6.0120988136434D-01
   104  1.0300000000000D+00  3.3235838959153D-01  6.7767174095164D-01
   105  1.0400000000000D+00  2.8849873888873D-01  7.6247608277450D-01
   106  1.0500000000000D+00  2.4325466971795D-01  8.5449181274089D-01
   107  1.0600000000000D+00  1.9697214216833D-01  9.5241768361249D-01
   108  1.0700000000000D+00  1.5003187395952D-01  1.0548040599407D+00
   109  1.0800000000000D+00  1.0284320669953D-01  1.1600777991291D+00
   110  1.0900000000000D+00  5.5837325554771D-02  1.2665698098655D+00
   111  1.1000000000000D+00  9.4599540693975D-03  1.3725447910259D+00
   112  1.1100000000000D+00 -3.5836343938774D-02  1.4762326122341D+00
   113  1.1200000000000D+00 -7.9600113583692D-02  1.5758607564863D+00
   114  1.1300000000000D+00 -1.2138906180055D-01  1.6696872220843D+00
   115  1.1400000000000D+00 -1.6077806348985D-01  1.7560332685180D+00
   116  1.1500000000000D+00 -1.9736697000554D-01  1.8333153887030D+00
   117  1.1600000000000D+00 -2.3078807048245D-01  1.9000758954474D+00
   118  1.1700000000000D+00 -2.6071306279910D-01  1.9550115355033D+00
   119  1.1800000000000D+00 -2.8685940018754D-01  1.9969995819986D+00
   120  1.1900000000000D+00 -3.0899588654714D-01  2.0251208846611D+00
   121  1.2000000000000D+00 -3.2694740947778D-01  2.0386794222235D+00
   122  1.2100000000000D+00 -3.4059871576707D-01  2.0372179654957D+00
   123  1.2200000000000D+00 -3.4989715104536D-01  2.0205295288555D+00
   124  1.2300000000000D+00 -3.5485429842171D-01  1.9886643413245D+00
   125  1.2400000000000D+00 -3.5554648072096D-01  1.9419321900897D+00
   126  1.2500000000000D+00 -3.5211410979583D-01  1.8809000663571D+00
   127  1.2600000000000D+00 -3.4475987394193D-01  1.8063850742377D+00
   128  1.2700000000000D+00 -3.3374579735145D-01  1.7194427386819D+00
   129  1.2800000000000D+00 -3.1938921761628D-01  1.6213508978761D+00
   130  1.2900000000000D+00 -3.0205773364424D-01  1.5135893914359D+00
   131  1.3000000000000D+00 -2.8216322161395D-01  1.3978159407925D+00
   132  1.3100000000000D+00 -2.6015501918478D-01  1.2758386288341D+00
   133  1.3200000000000D+00 -2.3651238589258D-01  1.1495854173498D+00
   134  1.3300000000000D+00 -2.1173638527442D-01  1.0210712947672D+00
   135  1.3400000000000D+00 -1.8634132369179D-01  8.9236360348761D-01
   136  1.3500000000000D+00 -1.6084589825462D-01  7.6554616738313D-01
   137  1.3600000000000D+00 -1.3576421535104D-01  6.4268287498947D-01
   138  1.3700000000000D+00 -1.1159683688548D-01  5.2578137495623D-01
   139  1.3800000000000D+00 -8.8822013644987D-02  4.1675747320670D-01
   140  1.3900000000000D+00 -6.7887287865898D-02  3.1740119770583D-01
   141  1.4000000000000D+00 -4.9201516386377D-02  2.2934404833237D-01
   142  1.4100000000000D+00 -3.3138642165095D-02  1.5408094897662D-01
   143  1.4200000000000D+00 -1.9970760569582D-02  9.2665674168767D-02
   144  1.4300000000000D+00 -9.9304484073006D-03  4.6003590631151D-02
   145  1.4400000000000D+00 -3.5053218224555D-03  1.6216584882973D-02
   146  1.4500000000000D+00 -4.9807306392478D-04  2.3003807655506D-03
   147  1.4600000000000D+00  2.4845181973822D-04 -1.1482174348318D-03
   148  1.4700000000000D+00  3.6926620433296D-05 -1.7049267365315D-04
   149  1.4800000000000D+00 -7.9305050609391D-05  3.6653584341898D-04
   150  1.4900000000000D+00  3.3601142538578D-06 -1.5561371487078D-05
   151  1.5000000000000D+00  1.2851606114628D-05 -5.9515805980611D-05
   152  1.5100000000000D+00  4.5073958659983D-08 -2.0624869060600D-07
   153  1.5200000000000D+00  5.2987682273530D-08 -2.4246017904934D-07
   154  1.5300000000000D+00  0.0000000000000D+00  0.0000000000000D+00
   155  1.5400000000000D+00  0.0000000000000D+00  0.0000000000000D+00
   156  1.5500000000000D+00  0.0000000000000D+00  0.0000000000000D+00
   157  1.5600000000000D+00  0.0000000000000D+00  0.0000000000000D+00
   158  1.5700000000000D+00  0.0000000000000D+00  0.0000000000000D+00
   159  1.5800000000000D+00  0.0000000000000D+00  0.0000000000000D+00
   160  1.5900000000000D+00  0.0000000000000D+00  0.0000000000000D+00
   161  1.6000000000000D+00  0.0000000000000D+00  0.0000000000000D+00
   162  1.6100000000000D+00  0.0000000000000D+00  0.0000000000000D+00
   163  1.6200000000000D+00  0.0000000000000D+00  0.0000000000000D+00
   164  1.6300000000000D+00  0.0000000000000D+00  0.0000000000000D+00
   165  1.6400000000000D+00  0.0000000000000D+00  0.0000000000000D+00
   166  1.6500000000000D+00  0.0000000000000D+00  0.0000000000000D+00
   167  1.6600000000000D+00  0.0000000000000D+00  0.0000000000000D+00
   168  1.6700000000000D+00  0.0000000000000D+00  0.0000000000000D+00
   169  1.6800000000000D+00  0.0000000000000D+00  0.0000000000000D+00
   170  1.6900000000000D+00  0.0000000000000D+00  0.0000000000000D+00
   171  1.7000000000000D+00  0.0000000000000D+00  0.0000000000000D+00
   172  1.7100000000000D+00  0.0000000000000D+00  0.0000000000000D+00
   173  1.7200000000000D+00  0.0000000000000D+00  0.0000000000000D+00
   174  1.7300000000000D+00  0.0000000000000D+00  0.0000000000000D+00
   175  1.7400000000000D+00  0.0000000000000D+00  0.0000000000000D+00
   176  1.7500000000000D+00  0.0000000000000D+00  0.0000000000000D+00
   177  1.7600000000000D+00  0.0000000000000D+00  0.0000000000000D+00
   178  1.7700000000000D+00  0.0000000000000D+00  0.0000000000000D+00
   179  1.7800000000000D+00  0.0000000000000D+00  0.0000000000000D+00
   180  1.7900000000000D+00  0.0000000000000D+00  0.0000000000000D+00
   181  1.8000000000000D+00  0.0000000000000D+00  0.0000000000000D+00
   182  1.8100000000000D+00  0.0000000000000D+00  0.0000000000000D+00
   183  1.8200000000000D+00  0.0000000000000D+00  0.0000000000000D+00
   184  1.8300000000000D+00  0.0000000000000D+00  0.0000000000000D+00
   185  1.8400000000000D+00  0.0000000000000D+00  0.0000000000000D+00
   186  1.8500000000000D+00  0.0000000000000D+00  0.0000000000000D+00
   187  1.8600000000000D+00  0.0000000000000D+00  0.0000000000000D+00
   188  1.8700000000000D+00  0.0000000000000D+00  0.0000000000000D+00
   189  1.8800000000000D+00  0.0000000000000D+00  0.0000000000000D+00
   190  1.8900000000000D+00  0.0000000000000D+00  0.0000000000000D+00
   191  1.9000000000000D+00  0.0000000000000D+00  0.0000000000000D+00
   192  1.9100000000000D+00  0.0000000000000D+00  0.0000000000000D+00
   193  1.9200000000000D+00  0.0000000000000D+00  0.0000000000000D+00
   194  1.9300000000000D+00  0.0000000000000D+00  0.0000000000000D+00
   195  1.9400000000000D+00  0.0000000000000D+00  0.0000000000000D+00
   196  1.9500000000000D+00  0.0000000000000D+00  0.0000000000000D+00
   197  1.9600000000000D+00  0.0000000000000D+00  0.0000000000000D+00
   198  1.9700000000000D+00  0.0000000000000D+00  0.0000000000000D+00
   199  1.9800000000000D+00  0.0000000000000D+00  0.0000000000000D+00
   200  1.9900000000000D+00  0.0000000000000D+00  0.0000000000000D+00
   201  2.0000000000000D+00  0.0000000000000D+00  0.0000000000000D+00
   202  2.0100000000000D+00  0.0000000000000D+00  0.0000000000000D+00
   203  2.0200000000000D+00  0.0000000000000D+00  0.0000000000000D+00
   204  2.0300000000000D+00  0.0000000000000D+00  0.0000000000000D+00
   205  2.0400000000000D+00  0.0000000000000D+00  0.0000000000000D+00
   206  2.0500000000000D+00  0.0000000000000D+00  0.0000000000000D+00
   207  2.0600000000000D+00  0.0000000000000D+00  0.0000000000000D+00
   208  2.0700000000000D+00  0.0000000000000D+00  0.0000000000000D+00
   209  2.0800000000000D+00  0.0000000000000D+00  0.0000000000000D+00
   210  2.0900000000000D+00  0.0000000000000D+00  0.0000000000000D+00
   211  2.1000000000000D+00  0.0000000000000D+00  0.0000000000000D+00
   212  2.1100000000000D+00  0.0000000000000D+00  0.0000000000000D+00
   213  2.1200000000000D+00  0.0000000000000D+00  0.0000000000000D+00
   214  2.1300000000000D+00  0.0000000000000D+00  0.0000000000000D+00
   215  2.1400000000000D+00  0.0000000000000D+00  0.0000000000000D+00
   216  2.1500000000000D+00  0.0000000000000D+00  0.0000000000000D+00
   217  2.1600000000000D+00  0.0000000000000D+00  0.0000000000000D+00
   218  2.1700000000000D+00  0.0000000000000D+00  0.0000000000000D+00
   219  2.1800000000000D+00  0.0000000000000D+00  0.0000000000000D+00
   220  2.1900000000000D+00  0.0000000000000D+00  0.0000000000000D+00
   221  2.2000000000000D+00  0.0000000000000D+00  0.0000000000000D+00
   222  2.2100000000000D+00  0.0000000000000D+00  0.0000000000000D+00
   223  2.2200000000000D+00  0.0000000000000D+00  0.0000000000000D+00
   224  2.2300000000000D+00  0.0000000000000D+00  0.0000000000000D+00
   225  2.2400000000000D+00  0.0000000000000D+00  0.0000000000000D+00
   226  2.2500000000000D+00  0.0000000000000D+00  0.0000000000000D+00
   227  2.2600000000000D+00  0.0000000000000D+00  0.0000000000000D+00
   228  2.2700000000000D+00  0.0000000000000D+00  0.0000000000000D+00
   229  2.2800000000000D+00  0.0000000000000D+00  0.0000000000000D+00
   230  2.2900000000000D+00  0.0000000000000D+00  0.0000000000000D+00
   231  2.3000000000000D+00  0.0000000000000D+00  0.0000000000000D+00
   232  2.3100000000000D+00  0.0000000000000D+00  0.0000000000000D+00
   233  2.3200000000000D+00  0.0000000000000D+00  0.0000000000000D+00
   234  2.3300000000000D+00  0.0000000000000D+00  0.0000000000000D+00
   235  2.3400000000000D+00  0.0000000000000D+00  0.0000000000000D+00
   236  2.3500000000000D+00  0.0000000000000D+00  0.0000000000000D+00
   237  2.3600000000000D+00  0.0000000000000D+00  0.0000000000000D+00
   238  2.3700000000000D+00  0.0000000000000D+00  0.0000000000000D+00
   239  2.3800000000000D+00  0.0000000000000D+00  0.0000000000000D+00
   240  2.3900000000000D+00  0.0000000000000D+00  0.0000000000000D+00
   241  2.4000000000000D+00  0.0000000000000D+00  0.0000000000000D+00
   242  2.4100000000000D+00  0.0000000000000D+00  0.0000000000000D+00
   243  2.4200000000000D+00  0.0000000000000D+00  0.0000000000000D+00
   244  2.4300000000000D+00  0.0000000000000D+00  0.0000000000000D+00
   245  2.4400000000000D+00  0.0000000000000D+00  0.0000000000000D+00
   246  2.4500000000000D+00  0.0000000000000D+00  0.0000000000000D+00
   247  2.4600000000000D+00  0.0000000000000D+00  0.0000000000000D+00
   248  2.4700000000000D+00  0.0000000000000D+00  0.0000000000000D+00
   249  2.4800000000000D+00  0.0000000000000D+00  0.0000000000000D+00
   250  2.4900000000000D+00  0.0000000000000D+00  0.0000000000000D+00
   251  2.5000000000000D+00  0.0000000000000D+00  0.0000000000000D+00
   252  2.5100000000000D+00  0.0000000000000D+00  0.0000000000000D+00
   253  2.5200000000000D+00  0.0000000000000D+00  0.0000000000000D+00
   254  2.5300000000000D+00  0.0000000000000D+00  0.0000000000000D+00
   255  2.5400000000000D+00  0.0000000000000D+00  0.0000000000000D+00
   256  2.5500000000000D+00  0.0000000000000D+00  0.0000000000000D+00
   257  2.5600000000000D+00  0.0000000000000D+00  0.0000000000000D+00
   258  2.5700000000000D+00  0.0000000000000D+00  0.0000000000000D+00
   259  2.5800000000000D+00  0.0000000000000D+00  0.0000000000000D+00
   260  2.5900000000000D+00  0.0000000000000D+00  0.0000000000000D+00
   261  2.6000000000000D+00  0.0000000000000D+00  0.0000000000000D+00
   262  2.6100000000000D+00  0.0000000000000D+00  0.0000000000000D+00
   263  2.6200000000000D+00  0.0000000000000D+00  0.0000000000000D+00
   264  2.6300000000000D+00  0.0000000000000D+00  0.0000000000000D+00
   265  2.6400000000000D+00  0.0000000000000D+00  0.0000000000000D+00
   266  2.6500000000000D+00  0.0000000000000D+00  0.0000000000000D+00
   267  2.6600000000000D+00  0.0000000000000D+00  0.0000000000000D+00
   268  2.6700000000000D+00  0.0000000000000D+00  0.0000000000000D+00
   269  2.6800000000000D+00  0.0000000000000D+00  0.0000000000000D+00
   270  2.6900000000000D+00  0.0000000000000D+00  0.0000000000000D+00
   271  2.7000000000000D+00  0.0000000000000D+00  0.0000000000000D+00
   272  2.7100000000000D+00  0.0000000000000D+00  0.0000000000000D+00
   273  2.7200000000000D+00  0.0000000000000D+00  0.0000000000000D+00
   274  2.7300000000000D+00  0.0000000000000D+00  0.0000000000000D+00
   275  2.7400000000000D+00  0.0000000000000D+00  0.0000000000000D+00
   276  2.7500000000000D+00  0.0000000000000D+00  0.0000000000000D+00
   277  2.7600000000000D+00  0.0000000000000D+00  0.0000000000000D+00
   278  2.7700000000000D+00  0.0000000000000D+00  0.0000000000000D+00
   279  2.7800000000000D+00  0.0000000000000D+00  0.0000000000000D+00
   280  2.7900000000000D+00  0.0000000000000D+00  0.0000000000000D+00
   281  2.8000000000000D+00  0.0000000000000D+00  0.0000000000000D+00
   282  2.8100000000000D+00  0.0000000000000D+00  0.0000000000000D+00
   283  2.8200000000000D+00  0.0000000000000D+00  0.0000000000000D+00
   284  2.8300000000000D+00  0.0000000000000D+00  0.0000000000000D+00
   285  2.8400000000000D+00  0.0000000000000D+00  0.0000000000000D+00
   286  2.8500000000000D+00  0.0000000000000D+00  0.0000000000000D+00
   287  2.8600000000000D+00  0.0000000000000D+00  0.0000000000000D+00
   288  2.8700000000000D+00  0.0000000000000D+00  0.0000000000000D+00
   289  2.8800000000000D+00  0.0000000000000D+00  0.0000000000000D+00
   290  2.8900000000000D+00  0.0000000000000D+00  0.0000000000000D+00
   291  2.9000000000000D+00  0.0000000000000D+00  0.0000000000000D+00
   292  2.9100000000000D+00  0.0000000000000D+00  0.0000000000000D+00
   293  2.9200000000000D+00  0.0000000000000D+00  0.0000000000000D+00
   294  2.9300000000000D+00  0.0000000000000D+00  0.0000000000000D+00
   295  2.9400000000000D+00  0.0000000000000D+00  0.0000000000000D+00
   296  2.9500000000000D+00  0.0000000000000D+00  0.0000000000000D+00
   297  2.9600000000000D+00  0.0000000000000D+00  0.0000000000000D+00
   298  2.9700000000000D+00  0.0000000000000D+00  0.0000000000000D+00
   299  2.9800000000000D+00  0.0000000000000D+00  0.0000000000000D+00
   300  2.9900000000000D+00  0.0000000000000D+00  0.0000000000000D+00
   301  3.0000000000000D+00  0.0000000000000D+00  0.0000000000000D+00
   302  3.0100000000000D+00  0.0000000000000D+00  0.0000000000000D+00
   303  3.0200000000000D+00  0.0000000000000D+00  0.0000000000000D+00
   304  3.0300000000000D+00  0.0000000000000D+00  0.0000000000000D+00
   305  3.0400000000000D+00  0.0000000000000D+00  0.0000000000000D+00
   306  3.0500000000000D+00  0.0000000000000D+00  0.0000000000000D+00
   307  3.0600000000000D+00  0.0000000000000D+00  0.0000000000000D+00
   308  3.0700000000000D+00  0.0000000000000D+00  0.0000000000000D+00
   309  3.0800000000000D+00  0.0000000000000D+00  0.0000000000000D+00
   310  3.0900000000000D+00  0.0000000000000D+00  0.0000000000000D+00
   311  3.1000000000000D+00  0.0000000000000D+00  0.0000000000000D+00
   312  3.1100000000000D+00  0.0000000000000D+00  0.0000000000000D+00
   313  3.1200000000000D+00  0.0000000000000D+00  0.0000000000000D+00
   314  3.1300000000000D+00  0.0000000000000D+00  0.0000000000000D+00
   315  3.1400000000000D+00  0.0000000000000D+00  0.0000000000000D+00
   316  3.1500000000000D+00  0.0000000000000D+00  0.0000000000000D+00
   317  3.1600000000000D+00  0.0000000000000D+00  0.0000000000000D+00
   318  3.1700000000000D+00  0.0000000000000D+00  0.0000000000000D+00
   319  3.1800000000000D+00  0.0000000000000D+00  0.0000000000000D+00
   320  3.1900000000000D+00  0.0000000000000D+00  0.0000000000000D+00
   321  3.2000000000000D+00  0.0000000000000D+00  0.0000000000000D+00
   322  3.2100000000000D+00  0.0000000000000D+00  0.0000000000000D+00
   323  3.2200000000000D+00  0.0000000000000D+00  0.0000000000000D+00
   324  3.2300000000000D+00  0.0000000000000D+00  0.0000000000000D+00
   325  3.2400000000000D+00  0.0000000000000D+00  0.0000000000000D+00
   326  3.2500000000000D+00  0.0000000000000D+00  0.0000000000000D+00
   327  3.2600000000000D+00  0.0000000000000D+00  0.0000000000000D+00
   328  3.2700000000000D+00  0.0000000000000D+00  0.0000000000000D+00
   329  3.2800000000000D+00  0.0000000000000D+00  0.0000000000000D+00
   330  3.2900000000000D+00  0.0000000000000D+00  0.0000000000000D+00
   331  3.3000000000000D+00  0.0000000000000D+00  0.0000000000000D+00
   332  3.3100000000000D+00  0.0000000000000D+00  0.0000000000000D+00
   333  3.3200000000000D+00  0.0000000000000D+00  0.0000000000000D+00
   334  3.3300000000000D+00  0.0000000000000D+00  0.0000000000000D+00
   335  3.3400000000000D+00  0.0000000000000D+00  0.0000000000000D+00
   336  3.3500000000000D+00  0.0000000000000D+00  0.0000000000000D+00
   337  3.3600000000000D+00  0.0000000000000D+00  0.0000000000000D+00
   338  3.3700000000000D+00  0.0000000000000D+00  0.0000000000000D+00
   339  3.3800000000000D+00  0.0000000000000D+00  0.0000000000000D+00
   340  3.3900000000000D+00  0.0000000000000D+00  0.0000000000000D+00
   341  3.4000000000000D+00  0.0000000000000D+00  0.0000000000000D+00
   342  3.4100000000000D+00  0.0000000000000D+00  0.0000000000000D+00
   343  3.4200000000000D+00  0.0000000000000D+00  0.0000000000000D+00
   344  3.4300000000000D+00  0.0000000000000D+00  0.0000000000000D+00
   345  3.4400000000000D+00  0.0000000000000D+00  0.0000000000000D+00
   346  3.4500000000000D+00  0.0000000000000D+00  0.0000000000000D+00
   347  3.4600000000000D+00  0.0000000000000D+00  0.0000000000000D+00
   348  3.4700000000000D+00  0.0000000000000D+00  0.0000000000000D+00
   349  3.4800000000000D+00  0.0000000000000D+00  0.0000000000000D+00
   350  3.4900000000000D+00  0.0000000000000D+00  0.0000000000000D+00
   351  3.5000000000000D+00  0.0000000000000D+00  0.0000000000000D+00
   352  3.5100000000000D+00  0.0000000000000D+00  0.0000000000000D+00
   353  3.5200000000000D+00  0.0000000000000D+00  0.0000000000000D+00
   354  3.5300000000000D+00  0.0000000000000D+00  0.0000000000000D+00
   355  3.5400000000000D+00  0.0000000000000D+00  0.0000000000000D+00
   356  3.5500000000000D+00  0.0000000000000D+00  0.0000000000000D+00
   357  3.5600000000000D+00  0.0000000000000D+00  0.0000000000000D+00
   358  3.5700000000000D+00  0.0000000000000D+00  0.0000000000000D+00
   359  3.5800000000000D+00  0.0000000000000D+00  0.0000000000000D+00
   360  3.5900000000000D+00  0.0000000000000D+00  0.0000000000000D+00
   361  3.6000000000000D+00  0.0000000000000D+00  0.0000000000000D+00
   362  3.6100000000000D+00  0.0000000000000D+00  0.0000000000000D+00
   363  3.6200000000000D+00  0.0000000000000D+00  0.0000000000000D+00
   364  3.6300000000000D+00  0.0000000000000D+00  0.0000000000000D+00
   365  3.6400000000000D+00  0.0000000000000D+00  0.0000000000000D+00
   366  3.6500000000000D+00  0.0000000000000D+00  0.0000000000000D+00
   367  3.6600000000000D+00  0.0000000000000D+00  0.0000000000000D+00
   368  3.6700000000000D+00  0.0000000000000D+00  0.0000000000000D+00
   369  3.6800000000000D+00  0.0000000000000D+00  0.0000000000000D+00
   370  3.6900000000000D+00  0.0000000000000D+00  0.0000000000000D+00
   371  3.7000000000000D+00  0.0000000000000D+00  0.0000000000000D+00
   372  3.7100000000000D+00  0.0000000000000D+00  0.0000000000000D+00
   373  3.7200000000000D+00  0.0000000000000D+00  0.0000000000000D+00
   374  3.7300000000000D+00  0.0000000000000D+00  0.0000000000000D+00
   375  3.7400000000000D+00  0.0000000000000D+00  0.0000000000000D+00
   376  3.7500000000000D+00  0.0000000000000D+00  0.0000000000000D+00
   377  3.7600000000000D+00  0.0000000000000D+00  0.0000000000000D+00
   378  3.7700000000000D+00  0.0000000000000D+00  0.0000000000000D+00
   379  3.7800000000000D+00  0.0000000000000D+00  0.0000000000000D+00
   380  3.7900000000000D+00  0.0000000000000D+00  0.0000000000000D+00
   381  3.8000000000000D+00  0.0000000000000D+00  0.0000000000000D+00
   382  3.8100000000000D+00  0.0000000000000D+00  0.0000000000000D+00
   383  3.8200000000000D+00  0.0000000000000D+00  0.0000000000000D+00
   384  3.8300000000000D+00  0.0000000000000D+00  0.0000000000000D+00
   385  3.8400000000000D+00  0.0000000000000D+00  0.0000000000000D+00
   386  3.8500000000000D+00  0.0000000000000D+00  0.0000000000000D+00
   387  3.8600000000000D+00  0.0000000000000D+00  0.0000000000000D+00
   388  3.8700000000000D+00  0.0000000000000D+00  0.0000000000000D+00
   389  3.8800000000000D+00  0.0000000000000D+00  0.0000000000000D+00
   390  3.8900000000000D+00  0.0000000000000D+00  0.0000000000000D+00
   391  3.9000000000000D+00  0.0000000000000D+00  0.0000000000000D+00
   392  3.9100000000000D+00  0.0000000000000D+00  0.0000000000000D+00
   393  3.9200000000000D+00  0.0000000000000D+00  0.0000000000000D+00
   394  3.9300000000000D+00  0.0000000000000D+00  0.0000000000000D+00
   395  3.9400000000000D+00  0.0000000000000D+00  0.0000000000000D+00
   396  3.9500000000000D+00  0.0000000000000D+00  0.0000000000000D+00
   397  3.9600000000000D+00  0.0000000000000D+00  0.0000000000000D+00
   398  3.9700000000000D+00  0.0000000000000D+00  0.0000000000000D+00
   399  3.9800000000000D+00  0.0000000000000D+00  0.0000000000000D+00
   400  3.9900000000000D+00  0.0000000000000D+00  0.0000000000000D+00
   401  4.0000000000000D+00  0.0000000000000D+00  0.0000000000000D+00
   402  4.0100000000000D+00  0.0000000000000D+00  0.0000000000000D+00
   403  4.0200000000000D+00  0.0000000000000D+00  0.0000000000000D+00
   404  4.0300000000000D+00  0.0000000000000D+00  0.0000000000000D+00
   405  4.0400000000000D+00  0.0000000000000D+00  0.0000000000000D+00
   406  4.0500000000000D+00  0.0000000000000D+00  0.0000000000000D+00
   407  4.0600000000000D+00  0.0000000000000D+00  0.0000000000000D+00
   408  4.0700000000000D+00  0.0000000000000D+00  0.0000000000000D+00
   409  4.0800000000000D+00  0.0000000000000D+00  0.0000000000000D+00
   410  4.0900000000000D+00  0.0000000000000D+00  0.0000000000000D+00
   411  4.1000000000000D+00  0.0000000000000D+00  0.0000000000000D+00
   412  4.1100000000000D+00  0.0000000000000D+00  0.0000000000000D+00
   413  4.1200000000000D+00  0.0000000000000D+00  0.0000000000000D+00
   414  4.1300000000000D+00  0.0000000000000D+00  0.0000000000000D+00
   415  4.1400000000000D+00  0.0000000000000D+00  0.0000000000000D+00
   416  4.1500000000000D+00  0.0000000000000D+00  0.0000000000000D+00
   417  4.1600000000000D+00  0.0000000000000D+00  0.0000000000000D+00
   418  4.1700000000000D+00  0.0000000000000D+00  0.0000000000000D+00
   419  4.1800000000000D+00  0.0000000000000D+00  0.0000000000000D+00
   420  4.1900000000000D+00  0.0000000000000D+00  0.0000000000000D+00
   421  4.2000000000000D+00  0.0000000000000D+00  0.0000000000000D+00
   422  4.2100000000000D+00  0.0000000000000D+00  0.0000000000000D+00