Bi    ONCVPSP-3.3.0  r_core=   2.42776   2.51622   2.10397
     83.0000     15.0000      220117    zatom,zion,pspd
     8      11   2     4   600     0    pspcod,pspxc,lmax,lloc,mmax,r2well
  5.99000000  0.00000000  0.00000000    rchrg fchrg qchrg
     2     2     2     0     0    nproj
     1     1           extension_switch
   0                         6.0173054987810D+00  9.6041840720651D-01
     1  0.0000000000000D+00  1.3958417754978D-12 -3.7552599918556D-12
     2  1.0000000000000D-02  1.1123536570370D-02  1.3266508615424D-02
     3  2.0000000000000D-02  2.2268822090427D-02  2.6478366182479D-02
     4  3.0000000000000D-02  3.3457526605577D-02  3.9581102647194D-02
     5  4.0000000000000D-02  4.4711162549841D-02  5.2520609458790D-02
     6  5.0000000000000D-02  5.6051006432749D-02  6.5243319108202D-02
     7  6.0000000000000D-02  6.7498021116357D-02  7.7696383213552D-02
     8  7.0000000000000D-02  7.9072778877478D-02  8.9827848672581D-02
     9  8.0000000000000D-02  9.0795385448790D-02  1.0158683140583D-01
    10  9.0000000000000D-02  1.0268540523078D-01  1.1292368721904D-01
    11  1.0000000000000D-01  1.1476178786432D-01  1.2379017931887D-01
    12  1.1000000000000D-01  1.2704279635130D-01  1.3413964202271D-01
    13  1.2000000000000D-01  1.3954593690787D-01  1.4392714021062D-01
    14  1.3000000000000D-01  1.5228789073163D-01  1.5310962407634D-01
    15  1.4000000000000D-01  1.6528444786087D-01  1.6164607874334D-01
    16  1.5000000000000D-01  1.7855044329954D-01  1.6949766832236D-01
    17  1.6000000000000D-01  1.9209969557816D-01  1.7662787399851D-01
    18  1.7000000000000D-01  2.0594494791541D-01  1.8300262574765D-01
    19  1.8000000000000D-01  2.2009781214103D-01  1.8859042729574D-01
    20  1.9000000000000D-01  2.3456871553476D-01  1.9336247394834D-01
    21  2.0000000000000D-01  2.4936685073059D-01  1.9729276293304D-01
    22  2.1000000000000D-01  2.6450012882971D-01  2.0035819591329D-01
    23  2.2000000000000D-01  2.7997513585886D-01  2.0253867334928D-01
    24  2.3000000000000D-01  2.9579709270435D-01  2.0381718039939D-01
    25  2.4000000000000D-01  3.1196981864481D-01  2.0417986407435D-01
    26  2.5000000000000D-01  3.2849569859816D-01  2.0361610137607D-01
    27  2.6000000000000D-01  3.4537565419089D-01  2.0211855817374D-01
    28  2.7000000000000D-01  3.6260911874930D-01  1.9968323859093D-01
    29  2.8000000000000D-01  3.8019401630406D-01  1.9630952469994D-01
    30  2.9000000000000D-01  3.9812674469068D-01  1.9200020634260D-01
    31  3.0000000000000D-01  4.1640216281959D-01  1.8676150092044D-01
    32  3.1000000000000D-01  4.3501358217974D-01  1.8060306302196D-01
    33  3.2000000000000D-01  4.5395276263053D-01  1.7353798377973D-01
    34  3.3000000000000D-01  4.7320991252664D-01  1.6558277987629D-01
    35  3.4000000000000D-01  4.9277369321007D-01  1.5675737214415D-01
    36  3.5000000000000D-01  5.1263122789366D-01  1.4708505373248D-01
    37  3.6000000000000D-01  5.3276811494931D-01  1.3659244784079D-01
    38  3.7000000000000D-01  5.5316844560353D-01  1.2530945504789D-01
    39  3.8000000000000D-01  5.7381482603183D-01  1.1326919029320D-01
    40  3.9000000000000D-01  5.9468840383217D-01  1.0050790959618D-01
    41  4.0000000000000D-01  6.1576889884662D-01  8.7064926629073D-02
    42  4.1000000000000D-01  6.3703463828849D-01  7.2982519287316D-02
    43  4.2000000000000D-01  6.5846259612119D-01  5.8305826431659D-02
    44  4.3000000000000D-01  6.8002843662292D-01  4.3082735005678D-02
    45  4.4000000000000D-01  7.0170656206018D-01  2.7363757761704D-02
    46  4.5000000000000D-01  7.2347016438090D-01  1.1201901857962D-02
    47  4.6000000000000D-01  7.4529128082704D-01 -5.3474713812983D-03
    48  4.7000000000000D-01  7.6714085335424D-01 -2.2226795221765D-02
    49  4.8000000000000D-01  7.8898879173539D-01 -3.9376454441695D-02
    50  4.9000000000000D-01  8.1080404021299D-01 -5.6734950043622D-02
    51  5.0000000000000D-01  8.3255464755464D-01 -7.4239071350046D-02
    52  5.1000000000000D-01  8.5420784035457D-01 -9.1824075051159D-02
    53  5.2000000000000D-01  8.7573009941376D-01 -1.0942387074658D-01
    54  5.3000000000000D-01  8.9708723902060D-01 -1.2697121249775D-01
    55  5.4000000000000D-01  9.1824448894405D-01 -1.4439789588363D-01
    56  5.5000000000000D-01  9.3916657894134D-01 -1.6163496002888D-01
    57  5.6000000000000D-01  9.5981782557324D-01 -1.7861289405210D-01
    58  5.7000000000000D-01  9.8016222111051D-01 -1.9526184736057D-01
    59  5.8000000000000D-01  1.0001635243072D+00 -2.1151184319901D-01
    60  5.9000000000000D-01  1.0197853528081D+00 -2.2729299484166D-01
    61  6.0000000000000D-01  1.0389912769504D+00 -2.4253572380110D-01
    62  6.1000000000000D-01  1.0577449147134D+00 -2.5717097941210D-01
    63  6.2000000000000D-01  1.0760100275618D+00 -2.7113045913633D-01
    64  6.3000000000000D-01  1.0937506169256D+00 -2.8434682892250D-01
    65  6.4000000000000D-01  1.1109310210526D+00 -2.9675394294724D-01
    66  6.5000000000000D-01  1.1275160119651D+00 -3.0828706205514D-01
    67  6.6000000000000D-01  1.1434708922503D+00 -3.1888307021086D-01
    68  6.7000000000000D-01  1.1587615914111D+00 -3.2848068827360D-01
    69  6.8000000000000D-01  1.1733547614999D+00 -3.3702068440298D-01
    70  6.9000000000000D-01  1.1872178717599D+00 -3.4444608040699D-01
    71  7.0000000000000D-01  1.2003193019965D+00 -3.5070235334629D-01
    72  7.1000000000000D-01  1.2126284344009D+00 -3.5573763171478D-01
    73  7.2000000000000D-01  1.2241157435524D+00 -3.5950288552505D-01
    74  7.3000000000000D-01  1.2347528843255D+00 -3.6195210963745D-01
    75  7.4000000000000D-01  1.2445127774314D+00 -3.6304249968473D-01
    76  7.5000000000000D-01  1.2533696923297D+00 -3.6273461995947D-01
    77  7.6000000000000D-01  1.2612993272474D+00 -3.6099256264888D-01
    78  7.7000000000000D-01  1.2682788860521D+00 -3.5778409782203D-01
    79  7.8000000000000D-01  1.2742871517297D+00 -3.5308081359625D-01
    80  7.9000000000000D-01  1.2793045562260D+00 -3.4685824593438D-01
    81  8.0000000000000D-01  1.2833132464201D+00 -3.3909599755121D-01
    82  8.1000000000000D-01  1.2862971460069D+00 -3.2977784543634D-01
    83  8.2000000000000D-01  1.2882420130741D+00 -3.1889183653167D-01
    84  8.3000000000000D-01  1.2891354931732D+00 -3.0643037113499D-01
    85  8.4000000000000D-01  1.2889671676936D+00 -2.9239027363599D-01
    86  8.5000000000000D-01  1.2877285973611D+00 -2.7677285022794D-01
    87  8.6000000000000D-01  1.2854133606975D+00 -2.5958393327689D-01
    88  8.7000000000000D-01  1.2820170872888D+00 -2.4083391207062D-01
    89  8.8000000000000D-01  1.2775374857262D+00 -2.2053774971121D-01
    90  8.9000000000000D-01  1.2719743660998D+00 -1.9871498595843D-01
    91  9.0000000000000D-01  1.2653296569372D+00 -1.7538972587547D-01
    92  9.1000000000000D-01  1.2576074164995D+00 -1.5059061417431D-01
    93  9.2000000000000D-01  1.2488138383615D+00 -1.2435079520436D-01
    94  9.3000000000000D-01  1.2389572512201D+00 -9.6707858575512D-02
    95  9.4000000000000D-01  1.2280481128935D+00 -6.7703770454626D-02
    96  9.5000000000000D-01  1.2160989984907D+00 -3.7384790623189D-02
    97  9.6000000000000D-01  1.2031245827487D+00 -5.8013754323532D-03
    98  9.7000000000000D-01  1.1891416165542D+00  2.6991933159141D-02
    99  9.8000000000000D-01  1.1741688976830D+00  6.0936632230069D-02
   100  9.9000000000000D-01  1.1582272358107D+00  9.5970395941786D-02
   101  1.0000000000000D+00  1.1413394118655D+00  1.3202722665203D-01
   102  1.0100000000000D+00  1.1235301318125D+00  1.6903761871935D-01
   103  1.0200000000000D+00  1.1048259749765D+00  2.0692873457153D-01
   104  1.0300000000000D+00  1.0852553370308D+00  2.4562459256710D-01
   105  1.0400000000000D+00  1.0648483677921D+00  2.8504626613346D-01
   106  1.0500000000000D+00  1.0436369039863D+00  3.2511209362172D-01
   107  1.0600000000000D+00  1.0216543971589D+00  3.6573789827664D-01
   108  1.0700000000000D+00  9.9893583692635D-01  4.0683721768109D-01
   109  1.0800000000000D+00  9.7551766977871D-01  4.4832154199333D-01
   110  1.0900000000000D+00  9.5143771365736D-01  4.9010056026197D-01
   111  1.1000000000000D+00  9.2673506855025D-01  5.3208241406693D-01
   112  1.1100000000000D+00  9.0145002335715D-01  5.7417395770615D-01
   113  1.1200000000000D+00  8.7562395929301D-01  6.1628102411571D-01
   114  1.1300000000000D+00  8.4929925010961D-01  6.5830869568540D-01
   115  1.1400000000000D+00  8.2251915942690D-01  7.0016157910780D-01
   116  1.1500000000000D+00  7.9532773547563D-01  7.4174408337920D-01
   117  1.1600000000000D+00  7.6776970356302D-01  7.8296070005190D-01
   118  1.1700000000000D+00  7.3989035658211D-01  8.2371628482149D-01
   119  1.1800000000000D+00  7.1173544389274D-01  8.6391633952280D-01
   120  1.1900000000000D+00  6.8335105890758D-01  9.0346729360023D-01
   121  1.2000000000000D+00  6.5478352572361D-01  9.4227678411073D-01
   122  1.2100000000000D+00  6.2607928514299D-01  9.8025393331800D-01
   123  1.2200000000000D+00  5.9728478042949D-01  1.0173096229395D+00
   124  1.2300000000000D+00  5.6844634314968D-01  1.0533567641085D+00
   125  1.2400000000000D+00  5.3961007944853D-01  1.0883105621254D+00
   126  1.2500000000000D+00  5.1082175710663D-01  1.1220887750909D+00
   127  1.2600000000000D+00  4.8212669372818D-01  1.1546119655104D+00
   128  1.2700000000000D+00  4.5356964640268D-01  1.1858037439981D+00
   129  1.2800000000000D+00  4.2519470317779D-01  1.2155910042304D+00
   130  1.2900000000000D+00  3.9704517668229D-01  1.2439041482986D+00
   131  1.3000000000000D+00  3.6916350022407D-01  1.2706773016700D+00
   132  1.3100000000000D+00  3.4159112667919D-01  1.2958485170008D+00
   133  1.3200000000000D+00  3.1436843049272D-01  1.3193599660279D+00
   134  1.3300000000000D+00  2.8753461308351D-01  1.3411581188759D+00
   135  1.3400000000000D+00  2.6112761194240D-01  1.3611939101220D+00
   136  1.3500000000000D+00  2.3518401371262D-01  1.3794228909663D+00
   137  1.3600000000000D+00  2.0973897150102D-01  1.3958053669956D+00
   138  1.3700000000000D+00  1.8482612668091D-01  1.4103065209855D+00
   139  1.3800000000000D+00  1.6047753542554D-01  1.4228965202592D+00
   140  1.3900000000000D+00  1.3672360017067D-01  1.4335506082580D+00
   141  1.4000000000000D+00  1.1359300624127D-01  1.4422491798531D+00
   142  1.4100000000000D+00  9.1112663799467D-02  1.4489778401879D+00
   143  1.4200000000000D+00  6.9307655290074D-02  1.4537274467692D+00
   144  1.4300000000000D+00  4.8201188550510D-02  1.4564941345635D+00
   145  1.4400000000000D+00  2.7814555671919D-02  1.4572793240974D+00
   146  1.4500000000000D+00  8.1670977777938D-03  1.4560897123183D+00
   147  1.4600000000000D+00 -1.0723824241071D-02  1.4529372463622D+00
   148  1.4700000000000D+00 -2.8842852937569D-02  1.4478390801901D+00
   149  1.4800000000000D+00 -4.6176651410456D-02  1.4408175141925D+00
   150  1.4900000000000D+00 -6.2713914310810D-02  1.4318999180489D+00
   151  1.5000000000000D+00 -7.8445372672155D-02  1.4211186368692D+00
   152  1.5100000000000D+00 -9.3363792668591D-02  1.4085108811630D+00
   153  1.5200000000000D+00 -1.0746396824156D-01  1.3941186007274D+00
   154  1.5300000000000D+00 -1.2074270772754D-01  1.3779883430762D+00
   155  1.5400000000000D+00 -1.3319881450905D-01  1.3601710967279D+00
   156  1.5500000000000D+00 -1.4483306180307D-01  1.3407221199276D+00
   157  1.5600000000000D+00 -1.5564816171367D-01  1.3197007553997D+00
   158  1.5700000000000D+00 -1.6564872863607D-01  1.2971702316380D+00
   159  1.5800000000000D+00 -1.7484123723939D-01  1.2731974515896D+00
   160  1.5900000000000D+00 -1.8323397509274D-01  1.2478527691868D+00
   161  1.6000000000000D+00 -1.9083699024942D-01  1.2212097547963D+00
   162  1.6100000000000D+00 -1.9766203384657D-01  1.1933449500320D+00
   163  1.6200000000000D+00 -2.0372249808876D-01  1.1643376131179D+00
   164  1.6300000000000D+00 -2.0903334970413D-01  1.1342694553366D+00
   165  1.6400000000000D+00 -2.1361105925193D-01  1.1032243697529D+00
   166  1.6500000000000D+00 -2.1747352642278D-01  1.0712881528860D+00
   167  1.6600000000000D+00 -2.2064000170793D-01  1.0385482204901D+00
   168  1.6700000000000D+00 -2.2313100462679D-01  1.0050933182359D+00
   169  1.6800000000000D+00 -2.2496823888673D-01  9.7101322842112D-01
   170  1.6900000000000D+00 -2.2617450470273D-01  9.3639847359430D-01
   171  1.7000000000000D+00 -2.2677360864878D-01  9.0134001818270D-01
   172  1.7100000000000D+00 -2.2679027129863D-01  8.6592896908158D-01
   173  1.7200000000000D+00 -2.2625003302297D-01  8.3025627623925D-01
   174  1.7300000000000D+00 -2.2517915822629D-01  7.9441243426519D-01
   175  1.7400000000000D+00 -2.2360453837744D-01  7.5848718600059D-01
   176  1.7500000000000D+00 -2.2155359414464D-01  7.2256922916971D-01
   177  1.7600000000000D+00 -2.1905417696047D-01  6.8674592689041D-01
   178  1.7700000000000D+00 -2.1613447036540D-01  6.5110302330406D-01
   179  1.7800000000000D+00 -2.1282289140199D-01  6.1572436484837D-01
   180  1.7900000000000D+00 -2.0914799246455D-01  5.8069162864363D-01
   181  1.8000000000000D+00 -2.0513836379697D-01  5.4608405818316D-01
   182  1.8100000000000D+00 -2.0082253710576D-01  5.1197820800304D-01
   183  1.8200000000000D+00 -1.9622889040744D-01  4.7844769726322D-01
   184  1.8300000000000D+00 -1.9138555460001D-01  4.4556297391897D-01
   185  1.8400000000000D+00 -1.8632032185301D-01  4.1339108939005D-01
   186  1.8500000000000D+00 -1.8106055626247D-01  3.8199548514345D-01
   187  1.8600000000000D+00 -1.7563310690558D-01  3.5143579131964D-01
   188  1.8700000000000D+00 -1.7006422361649D-01  3.2176763826962D-01
   189  1.8800000000000D+00 -1.6437947574250D-01  2.9304248164573D-01
   190  1.8900000000000D+00 -1.5860367397858D-01  2.6530744104182D-01
   191  1.9000000000000D+00 -1.5276079575983D-01  2.3860515364663D-01
   192  1.9100000000000D+00 -1.4687391399623D-01  2.1297364176452D-01
   193  1.9200000000000D+00 -1.4096512987027D-01  1.8844619650944D-01
   194  1.9300000000000D+00 -1.3505550929093D-01  1.6505127588233D-01
   195  1.9400000000000D+00 -1.2916502309976D-01  1.4281241686873D-01
   196  1.9500000000000D+00 -1.2331249376666D-01  1.2174817303182D-01
   197  1.9600000000000D+00 -1.1751554273052D-01  1.0187205258238D-01
   198  1.9700000000000D+00 -1.1179053890658D-01  8.3192458402709D-02
   199  1.9800000000000D+00 -1.0615258517655D-01  6.5712780383279D-02
   200  1.9900000000000D+00 -1.0061545382909D-01  4.9431285137342D-02
   201  2.0000000000000D+00 -9.5191496141479D-02  3.4340866961486D-02
   202  2.0100000000000D+00 -8.9891720499130D-02  2.0429526985891D-02
   203  2.0200000000000D+00 -8.4725855968015D-02  7.6807907509779D-03
   204  2.0300000000000D+00 -7.9702424128823D-02 -3.9258715940400D-03
   205  2.0400000000000D+00 -7.4828813405129D-02 -1.4414678708129D-02
   206  2.0500000000000D+00 -7.0111458060458D-02 -2.3812712677079D-02
   207  2.0600000000000D+00 -6.5555785113569D-02 -3.2150096834903D-02
   208  2.0700000000000D+00 -6.1166241398603D-02 -3.9459855726010D-02
   209  2.0800000000000D+00 -5.6946326871334D-02 -4.5777739598660D-02
   210  2.0900000000000D+00 -5.2898644091922D-02 -5.1141976993368D-02
   211  2.1000000000000D+00 -4.9024927013400D-02 -5.5593128926765D-02
   212  2.1100000000000D+00 -4.5326086822628D-02 -5.9173870017993D-02
   213  2.1200000000000D+00 -4.1802254240348D-02 -6.1928789103165D-02
   214  2.1300000000000D+00 -3.8452824966987D-02 -6.3904179627849D-02
   215  2.1400000000000D+00 -3.5276506899332D-02 -6.5147825641604D-02
   216  2.1500000000000D+00 -3.2271368787236D-02 -6.5708784477501D-02
   217  2.1600000000000D+00 -2.9434890266770D-02 -6.5637166507286D-02
   218  2.1700000000000D+00 -2.6764012878278D-02 -6.4983913167632D-02
   219  2.1800000000000D+00 -2.4255191894341D-02 -6.3800573975013D-02
   220  2.1900000000000D+00 -2.1904448696689D-02 -6.2139083430716D-02
   221  2.2000000000000D+00 -1.9707423508723D-02 -6.0051538402298D-02
   222  2.2100000000000D+00 -1.7659428110870D-02 -5.7589977405524D-02
   223  2.2200000000000D+00 -1.5755498454143D-02 -5.4806161965092D-02
   224  2.2300000000000D+00 -1.3990446875016D-02 -5.1751361120523D-02
   225  2.2400000000000D+00 -1.2358913534504D-02 -4.8476140413731D-02
   226  2.2500000000000D+00 -1.0855417193733D-02 -4.5030154891075D-02
   227  2.2600000000000D+00 -9.4744047119547D-03 -4.1461948304302D-02
   228  2.2700000000000D+00 -8.2102991961412D-03 -3.7818758724013D-02
   229  2.2800000000000D+00 -7.0575469463967D-03 -3.4146330036802D-02
   230  2.2900000000000D+00 -6.0106621769359D-03 -3.0488732897677D-02
   231  2.3000000000000D+00 -5.0642701431157D-03 -2.6888192904412D-02
   232  2.3100000000000D+00 -4.2131482021872D-03 -2.3384927636233D-02
   233  2.3200000000000D+00 -3.4522641746905D-03 -2.0016994741916D-02
   234  2.3300000000000D+00 -2.7768127426390D-03 -1.6820148515083D-02
   235  2.3400000000000D+00 -2.1822489781745D-03 -1.3827708083173D-02
   236  2.3500000000000D+00 -1.6644916468861D-03 -1.1073231648874D-02
   237  2.3600000000000D+00 -1.2193232824811D-03 -8.5802447412099D-03
   238  2.3700000000000D+00 -8.4298278222329D-04 -6.3713304801244D-03
   239  2.3800000000000D+00 -5.3214396388656D-04 -4.4557790661538D-03
   240  2.3900000000000D+00 -2.8480757484346D-04 -2.8889676819231D-03
   241  2.4000000000000D+00 -9.8780219909269D-05 -1.7042875043889D-03
   242  2.4100000000000D+00  2.9824757804520D-05 -9.2132097806681D-04
   243  2.4200000000000D+00  9.9886652098866D-05 -4.4962578807183D-04
   244  2.4300000000000D+00  1.1417650356677D-04 -1.9629593517983D-04
   245  2.4400000000000D+00  8.0785751111973D-05 -6.4472975966152D-05
   246  2.4500000000000D+00  3.1047113416845D-05 -1.1939831087943D-05
   247  2.4600000000000D+00 -7.0705298991601D-06  1.6228710911189D-06
   248  2.4700000000000D+00 -1.5939298925708D-05  9.5410616683335D-07
   249  2.4800000000000D+00 -8.4693277952389D-06 -4.8574649703352D-07
   250  2.4900000000000D+00  1.5327931977786D-06 -7.0922142634137D-07
   251  2.5000000000000D+00  3.4493515231364D-06 -1.3658117531401D-06
   252  2.5100000000000D+00  1.9293969933467D-06 -6.5919412499716D-07
   253  2.5200000000000D+00 -1.4514560507741D-07  3.0081762032259D-07
   254  2.5300000000000D+00 -3.3054790604887D-07  6.8506817307491D-07
   255  2.5400000000000D+00 -1.9404004637884D-07  4.0215247969674D-07
   256  2.5500000000000D+00  0.0000000000000D+00  0.0000000000000D+00
   257  2.5600000000000D+00  0.0000000000000D+00  0.0000000000000D+00
   258  2.5700000000000D+00  0.0000000000000D+00  0.0000000000000D+00
   259  2.5800000000000D+00  0.0000000000000D+00  0.0000000000000D+00
   260  2.5900000000000D+00  0.0000000000000D+00  0.0000000000000D+00
   261  2.6000000000000D+00  0.0000000000000D+00  0.0000000000000D+00
   262  2.6100000000000D+00  0.0000000000000D+00  0.0000000000000D+00
   263  2.6200000000000D+00  0.0000000000000D+00  0.0000000000000D+00
   264  2.6300000000000D+00  0.0000000000000D+00  0.0000000000000D+00
   265  2.6400000000000D+00  0.0000000000000D+00  0.0000000000000D+00
   266  2.6500000000000D+00  0.0000000000000D+00  0.0000000000000D+00
   267  2.6600000000000D+00  0.0000000000000D+00  0.0000000000000D+00
   268  2.6700000000000D+00  0.0000000000000D+00  0.0000000000000D+00
   269  2.6800000000000D+00  0.0000000000000D+00  0.0000000000000D+00
   270  2.6900000000000D+00  0.0000000000000D+00  0.0000000000000D+00
   271  2.7000000000000D+00  0.0000000000000D+00  0.0000000000000D+00
   272  2.7100000000000D+00  0.0000000000000D+00  0.0000000000000D+00
   273  2.7200000000000D+00  0.0000000000000D+00  0.0000000000000D+00
   274  2.7300000000000D+00  0.0000000000000D+00  0.0000000000000D+00
   275  2.7400000000000D+00  0.0000000000000D+00  0.0000000000000D+00
   276  2.7500000000000D+00  0.0000000000000D+00  0.0000000000000D+00
   277  2.7600000000000D+00  0.0000000000000D+00  0.0000000000000D+00
   278  2.7700000000000D+00  0.0000000000000D+00  0.0000000000000D+00
   279  2.7800000000000D+00  0.0000000000000D+00  0.0000000000000D+00
   280  2.7900000000000D+00  0.0000000000000D+00  0.0000000000000D+00
   281  2.8000000000000D+00  0.0000000000000D+00  0.0000000000000D+00
   282  2.8100000000000D+00  0.0000000000000D+00  0.0000000000000D+00
   283  2.8200000000000D+00  0.0000000000000D+00  0.0000000000000D+00
   284  2.8300000000000D+00  0.0000000000000D+00  0.0000000000000D+00
   285  2.8400000000000D+00  0.0000000000000D+00  0.0000000000000D+00
   286  2.8500000000000D+00  0.0000000000000D+00  0.0000000000000D+00
   287  2.8600000000000D+00  0.0000000000000D+00  0.0000000000000D+00
   288  2.8700000000000D+00  0.0000000000000D+00  0.0000000000000D+00
   289  2.8800000000000D+00  0.0000000000000D+00  0.0000000000000D+00
   290  2.8900000000000D+00  0.0000000000000D+00  0.0000000000000D+00
   291  2.9000000000000D+00  0.0000000000000D+00  0.0000000000000D+00
   292  2.9100000000000D+00  0.0000000000000D+00  0.0000000000000D+00
   293  2.9200000000000D+00  0.0000000000000D+00  0.0000000000000D+00
   294  2.9300000000000D+00  0.0000000000000D+00  0.0000000000000D+00
   295  2.9400000000000D+00  0.0000000000000D+00  0.0000000000000D+00
   296  2.9500000000000D+00  0.0000000000000D+00  0.0000000000000D+00
   297  2.9600000000000D+00  0.0000000000000D+00  0.0000000000000D+00
   298  2.9700000000000D+00  0.0000000000000D+00  0.0000000000000D+00
   299  2.9800000000000D+00  0.0000000000000D+00  0.0000000000000D+00
   300  2.9900000000000D+00  0.0000000000000D+00  0.0000000000000D+00
   301  3.0000000000000D+00  0.0000000000000D+00  0.0000000000000D+00
   302  3.0100000000000D+00  0.0000000000000D+00  0.0000000000000D+00
   303  3.0200000000000D+00  0.0000000000000D+00  0.0000000000000D+00
   304  3.0300000000000D+00  0.0000000000000D+00  0.0000000000000D+00
   305  3.0400000000000D+00  0.0000000000000D+00  0.0000000000000D+00
   306  3.0500000000000D+00  0.0000000000000D+00  0.0000000000000D+00
   307  3.0600000000000D+00  0.0000000000000D+00  0.0000000000000D+00
   308  3.0700000000000D+00  0.0000000000000D+00  0.0000000000000D+00
   309  3.0800000000000D+00  0.0000000000000D+00  0.0000000000000D+00
   310  3.0900000000000D+00  0.0000000000000D+00  0.0000000000000D+00
   311  3.1000000000000D+00  0.0000000000000D+00  0.0000000000000D+00
   312  3.1100000000000D+00  0.0000000000000D+00  0.0000000000000D+00
   313  3.1200000000000D+00  0.0000000000000D+00  0.0000000000000D+00
   314  3.1300000000000D+00  0.0000000000000D+00  0.0000000000000D+00
   315  3.1400000000000D+00  0.0000000000000D+00  0.0000000000000D+00
   316  3.1500000000000D+00  0.0000000000000D+00  0.0000000000000D+00
   317  3.1600000000000D+00  0.0000000000000D+00  0.0000000000000D+00
   318  3.1700000000000D+00  0.0000000000000D+00  0.0000000000000D+00
   319  3.1800000000000D+00  0.0000000000000D+00  0.0000000000000D+00
   320  3.1900000000000D+00  0.0000000000000D+00  0.0000000000000D+00
   321  3.2000000000000D+00  0.0000000000000D+00  0.0000000000000D+00
   322  3.2100000000000D+00  0.0000000000000D+00  0.0000000000000D+00
   323  3.2200000000000D+00  0.0000000000000D+00  0.0000000000000D+00
   324  3.2300000000000D+00  0.0000000000000D+00  0.0000000000000D+00
   325  3.2400000000000D+00  0.0000000000000D+00  0.0000000000000D+00
   326  3.2500000000000D+00  0.0000000000000D+00  0.0000000000000D+00
   327  3.2600000000000D+00  0.0000000000000D+00  0.0000000000000D+00
   328  3.2700000000000D+00  0.0000000000000D+00  0.0000000000000D+00
   329  3.2800000000000D+00  0.0000000000000D+00  0.0000000000000D+00
   330  3.2900000000000D+00  0.0000000000000D+00  0.0000000000000D+00
   331  3.3000000000000D+00  0.0000000000000D+00  0.0000000000000D+00
   332  3.3100000000000D+00  0.0000000000000D+00  0.0000000000000D+00
   333  3.3200000000000D+00  0.0000000000000D+00  0.0000000000000D+00
   334  3.3300000000000D+00  0.0000000000000D+00  0.0000000000000D+00
   335  3.3400000000000D+00  0.0000000000000D+00  0.0000000000000D+00
   336  3.3500000000000D+00  0.0000000000000D+00  0.0000000000000D+00
   337  3.3600000000000D+00  0.0000000000000D+00  0.0000000000000D+00
   338  3.3700000000000D+00  0.0000000000000D+00  0.0000000000000D+00
   339  3.3800000000000D+00  0.0000000000000D+00  0.0000000000000D+00
   340  3.3900000000000D+00  0.0000000000000D+00  0.0000000000000D+00
   341  3.4000000000000D+00  0.0000000000000D+00  0.0000000000000D+00
   342  3.4100000000000D+00  0.0000000000000D+00  0.0000000000000D+00
   343  3.4200000000000D+00  0.0000000000000D+00  0.0000000000000D+00
   344  3.4300000000000D+00  0.0000000000000D+00  0.0000000000000D+00
   345  3.4400000000000D+00  0.0000000000000D+00  0.0000000000000D+00
   346  3.4500000000000D+00  0.0000000000000D+00  0.0000000000000D+00
   347  3.4600000000000D+00  0.0000000000000D+00  0.0000000000000D+00
   348  3.4700000000000D+00  0.0000000000000D+00  0.0000000000000D+00
   349  3.4800000000000D+00  0.0000000000000D+00  0.0000000000000D+00
   350  3.4900000000000D+00  0.0000000000000D+00  0.0000000000000D+00
   351  3.5000000000000D+00  0.0000000000000D+00  0.0000000000000D+00
   352  3.5100000000000D+00  0.0000000000000D+00  0.0000000000000D+00
   353  3.5200000000000D+00  0.0000000000000D+00  0.0000000000000D+00
   354  3.5300000000000D+00  0.0000000000000D+00  0.0000000000000D+00
   355  3.5400000000000D+00  0.0000000000000D+00  0.0000000000000D+00
   356  3.5500000000000D+00  0.0000000000000D+00  0.0000000000000D+00
   357  3.5600000000000D+00  0.0000000000000D+00  0.0000000000000D+00
   358  3.5700000000000D+00  0.0000000000000D+00  0.0000000000000D+00
   359  3.5800000000000D+00  0.0000000000000D+00  0.0000000000000D+00
   360  3.5900000000000D+00  0.0000000000000D+00  0.0000000000000D+00
   361  3.6000000000000D+00  0.0000000000000D+00  0.0000000000000D+00
   362  3.6100000000000D+00  0.0000000000000D+00  0.0000000000000D+00
   363  3.6200000000000D+00  0.0000000000000D+00  0.0000000000000D+00
   364  3.6300000000000D+00  0.0000000000000D+00  0.0000000000000D+00
   365  3.6400000000000D+00  0.0000000000000D+00  0.0000000000000D+00
   366  3.6500000000000D+00  0.0000000000000D+00  0.0000000000000D+00
   367  3.6600000000000D+00  0.0000000000000D+00  0.0000000000000D+00
   368  3.6700000000000D+00  0.0000000000000D+00  0.0000000000000D+00
   369  3.6800000000000D+00  0.0000000000000D+00  0.0000000000000D+00
   370  3.6900000000000D+00  0.0000000000000D+00  0.0000000000000D+00
   371  3.7000000000000D+00  0.0000000000000D+00  0.0000000000000D+00
   372  3.7100000000000D+00  0.0000000000000D+00  0.0000000000000D+00
   373  3.7200000000000D+00  0.0000000000000D+00  0.0000000000000D+00
   374  3.7300000000000D+00  0.0000000000000D+00  0.0000000000000D+00
   375  3.7400000000000D+00  0.0000000000000D+00  0.0000000000000D+00
   376  3.7500000000000D+00  0.0000000000000D+00  0.0000000000000D+00
   377  3.7600000000000D+00  0.0000000000000D+00  0.0000000000000D+00
   378  3.7700000000000D+00  0.0000000000000D+00  0.0000000000000D+00
   379  3.7800000000000D+00  0.0000000000000D+00  0.0000000000000D+00
   380  3.7900000000000D+00  0.0000000000000D+00  0.0000000000000D+00
   381  3.8000000000000D+00  0.0000000000000D+00  0.0000000000000D+00
   382  3.8100000000000D+00  0.0000000000000D+00  0.0000000000000D+00
   383  3.8200000000000D+00  0.0000000000000D+00  0.0000000000000D+00
   384  3.8300000000000D+00  0.0000000000000D+00  0.0000000000000D+00
   385  3.8400000000000D+00  0.0000000000000D+00  0.0000000000000D+00
   386  3.8500000000000D+00  0.0000000000000D+00  0.0000000000000D+00
   387  3.8600000000000D+00  0.0000000000000D+00  0.0000000000000D+00
   388  3.8700000000000D+00  0.0000000000000D+00  0.0000000000000D+00
   389  3.8800000000000D+00  0.0000000000000D+00  0.0000000000000D+00
   390  3.8900000000000D+00  0.0000000000000D+00  0.0000000000000D+00
   391  3.9000000000000D+00  0.0000000000000D+00  0.0000000000000D+00
   392  3.9100000000000D+00  0.0000000000000D+00  0.0000000000000D+00
   393  3.9200000000000D+00  0.0000000000000D+00  0.0000000000000D+00
   394  3.9300000000000D+00  0.0000000000000D+00  0.0000000000000D+00
   395  3.9400000000000D+00  0.0000000000000D+00  0.0000000000000D+00
   396  3.9500000000000D+00  0.0000000000000D+00  0.0000000000000D+00
   397  3.9600000000000D+00  0.0000000000000D+00  0.0000000000000D+00
   398  3.9700000000000D+00  0.0000000000000D+00  0.0000000000000D+00
   399  3.9800000000000D+00  0.0000000000000D+00  0.0000000000000D+00
   400  3.9900000000000D+00  0.0000000000000D+00  0.0000000000000D+00
   401  4.0000000000000D+00  0.0000000000000D+00  0.0000000000000D+00
   402  4.0100000000000D+00  0.0000000000000D+00  0.0000000000000D+00
   403  4.0200000000000D+00  0.0000000000000D+00  0.0000000000000D+00
   404  4.0300000000000D+00  0.0000000000000D+00  0.0000000000000D+00
   405  4.0400000000000D+00  0.0000000000000D+00  0.0000000000000D+00
   406  4.0500000000000D+00  0.0000000000000D+00  0.0000000000000D+00
   407  4.0600000000000D+00  0.0000000000000D+00  0.0000000000000D+00
   408  4.0700000000000D+00  0.0000000000000D+00  0.0000000000000D+00
   409  4.0800000000000D+00  0.0000000000000D+00  0.0000000000000D+00
   410  4.0900000000000D+00  0.0000000000000D+00  0.0000000000000D+00
   411  4.1000000000000D+00  0.0000000000000D+00  0.0000000000000D+00
   412  4.1100000000000D+00  0.0000000000000D+00  0.0000000000000D+00
   413  4.1200000000000D+00  0.0000000000000D+00  0.0000000000000D+00
   414  4.1300000000000D+00  0.0000000000000D+00  0.0000000000000D+00
   415  4.1400000000000D+00  0.0000000000000D+00  0.0000000000000D+00
   416  4.1500000000000D+00  0.0000000000000D+00  0.0000000000000D+00
   417  4.1600000000000D+00  0.0000000000000D+00  0.0000000000000D+00
   418  4.1700000000000D+00  0.0000000000000D+00  0.0000000000000D+00
   419  4.1800000000000D+00  0.0000000000000D+00  0.0000000000000D+00
   420  4.1900000000000D+00  0.0000000000000D+00  0.0000000000000D+00
   421  4.2000000000000D+00  0.0000000000000D+00  0.0000000000000D+00
   422  4.2100000000000D+00  0.0000000000000D+00  0.0000000000000D+00