Bi    ONCVPSP-3.3.0  r_core=   1.40250   1.50656   1.40250
     83.0000     23.0000      220117    zatom,zion,pspd
     8      11   2     4   600     0    pspcod,pspxc,lmax,lloc,mmax,r2well
  5.99000000  0.00000000  0.00000000    rchrg fchrg qchrg
     2     2     2     0     0    nproj
     1     1           extension_switch
   0                         1.6886050218575D+01  2.3079970830767D+00
     1  0.0000000000000D+00 -8.2496320885639D-10  2.1270017414032D-09
     2  1.0000000000000D-02  8.6039502387518D-02 -2.3154567982939D-02
     3  2.0000000000000D-02  1.7182612818371D-01 -4.6051588005209D-02
     4  3.0000000000000D-02  2.5710830151991D-01 -6.8436054483837D-02
     5  4.0000000000000D-02  3.4163703388417D-01 -9.0058011070780D-02
     6  5.0000000000000D-02  4.2516718279267D-01 -1.1067498702166D-01
     7  6.0000000000000D-02  5.0745866904981D-01 -1.3005432920441D-01
     8  7.0000000000000D-02  5.8827763977844D-01 -1.4797539750041D-01
     9  8.0000000000000D-02  6.6739756522672D-01 -1.6423159347741D-01
    10  9.0000000000000D-02  7.4460025836502D-01 -1.7863219481174D-01
    11  1.0000000000000D-01  8.1967680745994D-01 -1.9100397096618D-01
    12  1.1000000000000D-01  8.9242841313461D-01 -2.0119255904469D-01
    13  1.2000000000000D-01  9.6266712287386D-01 -2.0906358249295D-01
    14  1.3000000000000D-01  1.0302164574880D+00 -2.1450349933788D-01
    15  1.4000000000000D-01  1.0949119256848D+00 -2.1742017089710D-01
    16  1.5000000000000D-01  1.1566014245890D+00 -2.1774314627675D-01
    17  1.6000000000000D-01  1.2151455257695D+00 -2.1542366244390D-01
    18  1.7000000000000D-01  1.2704176480529D+00 -2.1043436413877D-01
    19  1.8000000000000D-01  1.3223041200945D+00 -2.0276875231246D-01
    20  1.9000000000000D-01  1.3707041373202D+00 -1.9244037406662D-01
    21  2.0000000000000D-01  1.4155296194076D+00 -1.7948177116530D-01
    22  2.1000000000000D-01  1.4567049759276D+00 -1.6394320801905D-01
    23  2.2000000000000D-01  1.4941667890902D+00 -1.4589120354549D-01
    24  2.3000000000000D-01  1.5278634237037D+00 -1.2540689443028D-01
    25  2.4000000000000D-01  1.5577545754511D+00 -1.0258425999511D-01
    26  2.5000000000000D-01  1.5838107693916D+00 -7.7528241078710D-02
    27  2.6000000000000D-01  1.6060128211907D+00 -5.0352787013511D-02
    28  2.7000000000000D-01  1.6243512739599D+00 -2.1178865901825D-02
    29  2.8000000000000D-01  1.6388258237429D+00  9.8675260610096D-03
    30  2.9000000000000D-01  1.6494447466024D+00  4.2657320518684D-02
    31  3.0000000000000D-01  1.6562243399529D+00  7.7060263092035D-02
    32  3.1000000000000D-01  1.6591883902428D+00  1.1294669591703D-01
    33  3.2000000000000D-01  1.6583676783235D+00  1.5018920460156D-01
    34  3.3000000000000D-01  1.6537995328669D+00  1.8866410000459D-01
    35  3.4000000000000D-01  1.6455274410103D+00  2.2825270815271D-01
    36  3.5000000000000D-01  1.6336007240515D+00  2.6884244500764D-01
    37  3.6000000000000D-01  1.6180742844889D+00  3.1032765663546D-01
    38  3.7000000000000D-01  1.5990084290416D+00  3.5261020954489D-01
    39  3.8000000000000D-01  1.5764687705098D+00  3.9559982049766D-01
    40  3.9000000000000D-01  1.5505262094772D+00  4.3921411987524D-01
    41  4.0000000000000D-01  1.5212569949447D+00  4.8337844764059D-01
    42  4.1000000000000D-01  1.4887428610532D+00  5.2802538597985D-01
    43  4.2000000000000D-01  1.4530712351339D+00  5.7309403776599D-01
    44  4.3000000000000D-01  1.4143355104474D+00  6.1852906496953D-01
    45  4.4000000000000D-01  1.3726353751804D+00  6.6427950596687D-01
    46  4.5000000000000D-01  1.3280771875866D+00  7.1029739527982D-01
    47  4.6000000000000D-01  1.2807743856200D+00  7.5653621354158D-01
    48  4.7000000000000D-01  1.2308479180485D+00  8.0294919934380D-01
    49  4.8000000000000D-01  1.1784266828761D+00  8.4948755800699D-01
    50  4.9000000000000D-01  1.1236479579750D+00  8.9609860516375D-01
    51  5.0000000000000D-01  1.0666578081495D+00  9.4272388529258D-01
    52  5.1000000000000D-01  1.0076114524485D+00  9.8929730693841D-01
    53  5.2000000000000D-01  9.4667357542064D-01  1.0357433372647D+00
    54  5.3000000000000D-01  8.8401856618183D-01  1.0819752987669D+00
    55  5.4000000000000D-01  8.1983066963996D-01  1.1278938104232D+00
    56  5.5000000000000D-01  7.5430403500020D-01  1.1733854142532D+00
    57  5.6000000000000D-01  6.8764264775394D-01  1.2183214262031D+00
    58  5.7000000000000D-01  6.2006013271739D-01  1.2625570475037D+00
    59  5.8000000000000D-01  5.5177941733511D-01  1.3059307691544D+00
    60  5.9000000000000D-01  4.8303224635524D-01  1.3482640980664D+00
    61  6.0000000000000D-01  4.1405854112590D-01  1.3893616286253D+00
    62  6.1000000000000D-01  3.4510559908765D-01  1.4290114781732D+00
    63  6.2000000000000D-01  2.7642713155899D-01  1.4669860991176D+00
    64  6.3000000000000D-01  2.0828214054777D-01  1.5030434742516D+00
    65  6.4000000000000D-01  1.4093363806782D-01  1.5369286954195D+00
    66  6.5000000000000D-01  7.4647214242074D-02  1.5683759190108D+00
    67  6.6000000000000D-01  9.6894632710744D-03  1.5971106850616D+00
    68  6.7000000000000D-01 -5.3673720871741D-02  1.6228525800061D+00
    69  6.8000000000000D-01 -1.1517896446769D-01  1.6453182165388D+00
    70  6.9000000000000D-01 -1.7456733268935D-01  1.6642244977019D+00
    71  7.0000000000000D-01 -2.3158632734300D-01  1.6792921263183D+00
    72  7.1000000000000D-01 -2.8599194203185D-01  1.6902493153219D+00
    73  7.2000000000000D-01 -3.3755075114521D-01  1.6968356495657D+00
    74  7.3000000000000D-01 -3.8604200745626D-01  1.6988060453404D+00
    75  7.4000000000000D-01 -4.3125972182598D-01  1.6959347502412D+00
    76  7.5000000000000D-01 -4.7301469758278D-01  1.6880193232303D+00
    77  7.6000000000000D-01 -5.1113649161207D-01  1.6748845328440D+00
    78  7.7000000000000D-01 -5.4547527406067D-01  1.6563861105241D+00
    79  7.8000000000000D-01 -5.7590355885321D-01  1.6324142960600D+00
    80  7.9000000000000D-01 -6.0231777793986D-01  1.6028971131298D+00
    81  8.0000000000000D-01 -6.2463967334744D-01  1.5678033149396D+00
    82  8.1000000000000D-01 -6.4281748268329D-01  1.5271449429697D+00
    83  8.2000000000000D-01 -6.5682689573068D-01  1.4809794458215D+00
    84  8.3000000000000D-01 -6.6667176215699D-01  1.4294113100795D+00
    85  8.4000000000000D-01 -6.7238453310427D-01  1.3725931609095D+00
    86  8.5000000000000D-01 -6.7402642251165D-01  1.3107262967140D+00
    87  8.6000000000000D-01 -6.7168727740166D-01  1.2440606295184D+00
    88  8.7000000000000D-01 -6.6548514998528D-01  1.1728940107082D+00
    89  8.8000000000000D-01 -6.5556556827965D-01  1.0975709302319D+00
    90  8.9000000000000D-01 -6.4210050589677D-01  1.0184805862238D+00
    91  9.0000000000000D-01 -6.2528705574985D-01  9.3605433116775D-01
    92  9.1000000000000D-01 -6.0534581651563D-01  8.5076250996271D-01
    93  9.2000000000000D-01 -5.8251900476925D-01  7.6311071449843D-01
    94  9.3000000000000D-01 -5.5706830969041D-01  6.7363548843746D-01
    95  9.4000000000000D-01 -5.2927251106938D-01  5.8289952467849D-01
    96  9.5000000000000D-01 -4.9942488495650D-01  4.9148640631211D-01
    97  9.6000000000000D-01 -4.6783042464155D-01  3.9999494963083D-01
    98  9.7000000000000D-01 -4.3480290766302D-01  3.0903321479109D-01
    99  9.8000000000000D-01 -4.0066184218030D-01  2.1921225592162D-01
   100  9.9000000000000D-01 -3.6572932825465D-01  1.3113968773782D-01
   101  1.0000000000000D+00 -3.3032687130687D-01  4.5413149885723D-02
   102  1.0100000000000D+00 -2.9477218626870D-01 -3.7386246662700D-02
   103  1.0200000000000D+00 -2.5937603166186D-01 -1.1670040493506D-01
   104  1.0300000000000D+00 -2.2443911297446D-01 -1.9200057220404D-01
   105  1.0400000000000D+00 -1.9024909432177D-01 -2.6279342895244D-01
   106  1.0500000000000D+00 -1.5707775638447D-01 -3.2862685235222D-01
   107  1.0600000000000D+00 -1.2517833708290D-01 -3.8909527329305D-01
   108  1.0700000000000D+00 -9.4783089509543D-02 -4.4384455016482D-01
   109  1.0800000000000D+00 -6.6101088842482D-02 -4.9257628872780D-01
   110  1.0900000000000D+00 -3.9316317075166D-02 -5.3505154378041D-01
   111  1.1000000000000D+00 -1.4586050623636D-02 -5.7109384672234D-01
   112  1.1100000000000D+00  7.9604277092058D-03 -6.0059151110581D-01
   113  1.1200000000000D+00  2.8222775403937D-02 -6.2349917828263D-01
   114  1.1300000000000D+00  4.6130183197191D-02 -6.3983857577196D-01
   115  1.1400000000000D+00  6.1641606801414D-02 -6.4969847174345D-01
   116  1.1500000000000D+00  7.4745634571682D-02 -6.5323381974860D-01
   117  1.1600000000000D+00  8.5459993244492D-02 -6.5066409897094D-01
   118  1.1700000000000D+00  9.3830699543140D-02 -6.4227086811796D-01
   119  1.1800000000000D+00  9.9930870251345D-02 -6.2839456199000D-01
   120  1.1900000000000D+00  1.0385920727023D-01 -6.0943056864480D-01
   121  1.2000000000000D+00  1.0573818007350D-01 -5.8582463848806D-01
   122  1.2100000000000D+00  1.0571193197877D-01 -5.5806768573324D-01
   123  1.2200000000000D+00  1.0394394042750D-01 -5.2669005126209D-01
   124  1.2300000000000D+00  1.0061446458860D-01 -4.9225530302646D-01
   125  1.2400000000000D+00  9.5917818257448D-02 -4.5535366073674D-01
   126  1.2500000000000D+00  9.0059507425068D-02 -4.1659513476046D-01
   127  1.2600000000000D+00  8.3253273870757D-02 -3.7660247374675D-01
   128  1.2700000000000D+00  7.5718091533220D-02 -3.3600402852019D-01
   129  1.2800000000000D+00  6.7675159939402D-02 -2.9542663273091D-01
   130  1.2900000000000D+00  5.9344845390176D-02 -2.5548836217069D-01
   131  1.3000000000000D+00  5.0943866163409D-02 -2.1679191546413D-01
   132  1.3100000000000D+00  4.2683024032805D-02 -1.7991942657811D-01
   133  1.3200000000000D+00  3.4761517775966D-02 -1.4541825804952D-01
   134  1.3300000000000D+00  2.7361526966041D-02 -1.1378760714983D-01
   135  1.3400000000000D+00  2.0642563331163D-02 -8.5464626685404D-02
   136  1.3500000000000D+00  1.4739233551195D-02 -6.0819442774355D-02
   137  1.3600000000000D+00  9.7628034808628D-03 -4.0164673493408D-02
   138  1.3700000000000D+00  5.7818161430265D-03 -2.3679565079192D-02
   139  1.3800000000000D+00  2.8406930813681D-03 -1.1489956669358D-02
   140  1.3900000000000D+00  1.0628077105787D-03 -4.0660081085206D-03
   141  1.4000000000000D+00  2.9030135841808D-04 -8.3235127288237D-04
   142  1.4100000000000D+00  4.3434884810974D-05  2.6032047442720D-05
   143  1.4200000000000D+00 -3.3668118915105D-07 -5.8194328660813D-06
   144  1.4300000000000D+00  1.6955803633384D-06 -3.9315201584335D-05
   145  1.4400000000000D+00  5.8646278659230D-07  3.6290772980999D-06
   146  1.4500000000000D+00  2.9361422433635D-07  3.5873471599628D-06
   147  1.4600000000000D+00 -5.3768143904518D-07  1.2749783319121D-06
   148  1.4700000000000D+00 -9.9618287061585D-08  2.3622008915032D-07
   149  1.4800000000000D+00  0.0000000000000D+00  0.0000000000000D+00
   150  1.4900000000000D+00  0.0000000000000D+00  0.0000000000000D+00
   151  1.5000000000000D+00  0.0000000000000D+00  0.0000000000000D+00
   152  1.5100000000000D+00  0.0000000000000D+00  0.0000000000000D+00
   153  1.5200000000000D+00  0.0000000000000D+00  0.0000000000000D+00
   154  1.5300000000000D+00  0.0000000000000D+00  0.0000000000000D+00
   155  1.5400000000000D+00  0.0000000000000D+00  0.0000000000000D+00
   156  1.5500000000000D+00  0.0000000000000D+00  0.0000000000000D+00
   157  1.5600000000000D+00  0.0000000000000D+00  0.0000000000000D+00
   158  1.5700000000000D+00  0.0000000000000D+00  0.0000000000000D+00
   159  1.5800000000000D+00  0.0000000000000D+00  0.0000000000000D+00
   160  1.5900000000000D+00  0.0000000000000D+00  0.0000000000000D+00
   161  1.6000000000000D+00  0.0000000000000D+00  0.0000000000000D+00
   162  1.6100000000000D+00  0.0000000000000D+00  0.0000000000000D+00
   163  1.6200000000000D+00  0.0000000000000D+00  0.0000000000000D+00
   164  1.6300000000000D+00  0.0000000000000D+00  0.0000000000000D+00
   165  1.6400000000000D+00  0.0000000000000D+00  0.0000000000000D+00
   166  1.6500000000000D+00  0.0000000000000D+00  0.0000000000000D+00
   167  1.6600000000000D+00  0.0000000000000D+00  0.0000000000000D+00
   168  1.6700000000000D+00  0.0000000000000D+00  0.0000000000000D+00
   169  1.6800000000000D+00  0.0000000000000D+00  0.0000000000000D+00
   170  1.6900000000000D+00  0.0000000000000D+00  0.0000000000000D+00
   171  1.7000000000000D+00  0.0000000000000D+00  0.0000000000000D+00
   172  1.7100000000000D+00  0.0000000000000D+00  0.0000000000000D+00
   173  1.7200000000000D+00  0.0000000000000D+00  0.0000000000000D+00
   174  1.7300000000000D+00  0.0000000000000D+00  0.0000000000000D+00
   175  1.7400000000000D+00  0.0000000000000D+00  0.0000000000000D+00
   176  1.7500000000000D+00  0.0000000000000D+00  0.0000000000000D+00
   177  1.7600000000000D+00  0.0000000000000D+00  0.0000000000000D+00
   178  1.7700000000000D+00  0.0000000000000D+00  0.0000000000000D+00
   179  1.7800000000000D+00  0.0000000000000D+00  0.0000000000000D+00
   180  1.7900000000000D+00  0.0000000000000D+00  0.0000000000000D+00
   181  1.8000000000000D+00  0.0000000000000D+00  0.0000000000000D+00
   182  1.8100000000000D+00  0.0000000000000D+00  0.0000000000000D+00
   183  1.8200000000000D+00  0.0000000000000D+00  0.0000000000000D+00
   184  1.8300000000000D+00  0.0000000000000D+00  0.0000000000000D+00
   185  1.8400000000000D+00  0.0000000000000D+00  0.0000000000000D+00
   186  1.8500000000000D+00  0.0000000000000D+00  0.0000000000000D+00
   187  1.8600000000000D+00  0.0000000000000D+00  0.0000000000000D+00
   188  1.8700000000000D+00  0.0000000000000D+00  0.0000000000000D+00
   189  1.8800000000000D+00  0.0000000000000D+00  0.0000000000000D+00
   190  1.8900000000000D+00  0.0000000000000D+00  0.0000000000000D+00
   191  1.9000000000000D+00  0.0000000000000D+00  0.0000000000000D+00
   192  1.9100000000000D+00  0.0000000000000D+00  0.0000000000000D+00
   193  1.9200000000000D+00  0.0000000000000D+00  0.0000000000000D+00
   194  1.9300000000000D+00  0.0000000000000D+00  0.0000000000000D+00
   195  1.9400000000000D+00  0.0000000000000D+00  0.0000000000000D+00
   196  1.9500000000000D+00  0.0000000000000D+00  0.0000000000000D+00
   197  1.9600000000000D+00  0.0000000000000D+00  0.0000000000000D+00
   198  1.9700000000000D+00  0.0000000000000D+00  0.0000000000000D+00
   199  1.9800000000000D+00  0.0000000000000D+00  0.0000000000000D+00
   200  1.9900000000000D+00  0.0000000000000D+00  0.0000000000000D+00
   201  2.0000000000000D+00  0.0000000000000D+00  0.0000000000000D+00
   202  2.0100000000000D+00  0.0000000000000D+00  0.0000000000000D+00
   203  2.0200000000000D+00  0.0000000000000D+00  0.0000000000000D+00
   204  2.0300000000000D+00  0.0000000000000D+00  0.0000000000000D+00
   205  2.0400000000000D+00  0.0000000000000D+00  0.0000000000000D+00
   206  2.0500000000000D+00  0.0000000000000D+00  0.0000000000000D+00
   207  2.0600000000000D+00  0.0000000000000D+00  0.0000000000000D+00
   208  2.0700000000000D+00  0.0000000000000D+00  0.0000000000000D+00
   209  2.0800000000000D+00  0.0000000000000D+00  0.0000000000000D+00
   210  2.0900000000000D+00  0.0000000000000D+00  0.0000000000000D+00
   211  2.1000000000000D+00  0.0000000000000D+00  0.0000000000000D+00
   212  2.1100000000000D+00  0.0000000000000D+00  0.0000000000000D+00
   213  2.1200000000000D+00  0.0000000000000D+00  0.0000000000000D+00
   214  2.1300000000000D+00  0.0000000000000D+00  0.0000000000000D+00
   215  2.1400000000000D+00  0.0000000000000D+00  0.0000000000000D+00
   216  2.1500000000000D+00  0.0000000000000D+00  0.0000000000000D+00
   217  2.1600000000000D+00  0.0000000000000D+00  0.0000000000000D+00
   218  2.1700000000000D+00  0.0000000000000D+00  0.0000000000000D+00
   219  2.1800000000000D+00  0.0000000000000D+00  0.0000000000000D+00
   220  2.1900000000000D+00  0.0000000000000D+00  0.0000000000000D+00
   221  2.2000000000000D+00  0.0000000000000D+00  0.0000000000000D+00
   222  2.2100000000000D+00  0.0000000000000D+00  0.0000000000000D+00
   223  2.2200000000000D+00  0.0000000000000D+00  0.0000000000000D+00
   224  2.2300000000000D+00  0.0000000000000D+00  0.0000000000000D+00
   225  2.2400000000000D+00  0.0000000000000D+00  0.0000000000000D+00
   226  2.2500000000000D+00  0.0000000000000D+00  0.0000000000000D+00
   227  2.2600000000000D+00  0.0000000000000D+00  0.0000000000000D+00
   228  2.2700000000000D+00  0.0000000000000D+00  0.0000000000000D+00
   229  2.2800000000000D+00  0.0000000000000D+00  0.0000000000000D+00
   230  2.2900000000000D+00  0.0000000000000D+00  0.0000000000000D+00
   231  2.3000000000000D+00  0.0000000000000D+00  0.0000000000000D+00
   232  2.3100000000000D+00  0.0000000000000D+00  0.0000000000000D+00
   233  2.3200000000000D+00  0.0000000000000D+00  0.0000000000000D+00
   234  2.3300000000000D+00  0.0000000000000D+00  0.0000000000000D+00
   235  2.3400000000000D+00  0.0000000000000D+00  0.0000000000000D+00
   236  2.3500000000000D+00  0.0000000000000D+00  0.0000000000000D+00
   237  2.3600000000000D+00  0.0000000000000D+00  0.0000000000000D+00
   238  2.3700000000000D+00  0.0000000000000D+00  0.0000000000000D+00
   239  2.3800000000000D+00  0.0000000000000D+00  0.0000000000000D+00
   240  2.3900000000000D+00  0.0000000000000D+00  0.0000000000000D+00
   241  2.4000000000000D+00  0.0000000000000D+00  0.0000000000000D+00
   242  2.4100000000000D+00  0.0000000000000D+00  0.0000000000000D+00
   243  2.4200000000000D+00  0.0000000000000D+00  0.0000000000000D+00
   244  2.4300000000000D+00  0.0000000000000D+00  0.0000000000000D+00
   245  2.4400000000000D+00  0.0000000000000D+00  0.0000000000000D+00
   246  2.4500000000000D+00  0.0000000000000D+00  0.0000000000000D+00
   247  2.4600000000000D+00  0.0000000000000D+00  0.0000000000000D+00
   248  2.4700000000000D+00  0.0000000000000D+00  0.0000000000000D+00
   249  2.4800000000000D+00  0.0000000000000D+00  0.0000000000000D+00
   250  2.4900000000000D+00  0.0000000000000D+00  0.0000000000000D+00
   251  2.5000000000000D+00  0.0000000000000D+00  0.0000000000000D+00
   252  2.5100000000000D+00  0.0000000000000D+00  0.0000000000000D+00
   253  2.5200000000000D+00  0.0000000000000D+00  0.0000000000000D+00
   254  2.5300000000000D+00  0.0000000000000D+00  0.0000000000000D+00
   255  2.5400000000000D+00  0.0000000000000D+00  0.0000000000000D+00
   256  2.5500000000000D+00  0.0000000000000D+00  0.0000000000000D+00
   257  2.5600000000000D+00  0.0000000000000D+00  0.0000000000000D+00
   258  2.5700000000000D+00  0.0000000000000D+00  0.0000000000000D+00
   259  2.5800000000000D+00  0.0000000000000D+00  0.0000000000000D+00
   260  2.5900000000000D+00  0.0000000000000D+00  0.0000000000000D+00
   261  2.6000000000000D+00  0.0000000000000D+00  0.0000000000000D+00
   262  2.6100000000000D+00  0.0000000000000D+00  0.0000000000000D+00
   263  2.6200000000000D+00  0.0000000000000D+00  0.0000000000000D+00
   264  2.6300000000000D+00  0.0000000000000D+00  0.0000000000000D+00
   265  2.6400000000000D+00  0.0000000000000D+00  0.0000000000000D+00
   266  2.6500000000000D+00  0.0000000000000D+00  0.0000000000000D+00
   267  2.6600000000000D+00  0.0000000000000D+00  0.0000000000000D+00
   268  2.6700000000000D+00  0.0000000000000D+00  0.0000000000000D+00
   269  2.6800000000000D+00  0.0000000000000D+00  0.0000000000000D+00
   270  2.6900000000000D+00  0.0000000000000D+00  0.0000000000000D+00
   271  2.7000000000000D+00  0.0000000000000D+00  0.0000000000000D+00
   272  2.7100000000000D+00  0.0000000000000D+00  0.0000000000000D+00
   273  2.7200000000000D+00  0.0000000000000D+00  0.0000000000000D+00
   274  2.7300000000000D+00  0.0000000000000D+00  0.0000000000000D+00
   275  2.7400000000000D+00  0.0000000000000D+00  0.0000000000000D+00
   276  2.7500000000000D+00  0.0000000000000D+00  0.0000000000000D+00
   277  2.7600000000000D+00  0.0000000000000D+00  0.0000000000000D+00
   278  2.7700000000000D+00  0.0000000000000D+00  0.0000000000000D+00
   279  2.7800000000000D+00  0.0000000000000D+00  0.0000000000000D+00
   280  2.7900000000000D+00  0.0000000000000D+00  0.0000000000000D+00
   281  2.8000000000000D+00  0.0000000000000D+00  0.0000000000000D+00
   282  2.8100000000000D+00  0.0000000000000D+00  0.0000000000000D+00
   283  2.8200000000000D+00  0.0000000000000D+00  0.0000000000000D+00
   284  2.8300000000000D+00  0.0000000000000D+00  0.0000000000000D+00
   285  2.8400000000000D+00  0.0000000000000D+00  0.0000000000000D+00
   286  2.8500000000000D+00  0.0000000000000D+00  0.0000000000000D+00
   287  2.8600000000000D+00  0.0000000000000D+00  0.0000000000000D+00
   288  2.8700000000000D+00  0.0000000000000D+00  0.0000000000000D+00
   289  2.8800000000000D+00  0.0000000000000D+00  0.0000000000000D+00
   290  2.8900000000000D+00  0.0000000000000D+00  0.0000000000000D+00
   291  2.9000000000000D+00  0.0000000000000D+00  0.0000000000000D+00
   292  2.9100000000000D+00  0.0000000000000D+00  0.0000000000000D+00
   293  2.9200000000000D+00  0.0000000000000D+00  0.0000000000000D+00
   294  2.9300000000000D+00  0.0000000000000D+00  0.0000000000000D+00
   295  2.9400000000000D+00  0.0000000000000D+00  0.0000000000000D+00
   296  2.9500000000000D+00  0.0000000000000D+00  0.0000000000000D+00
   297  2.9600000000000D+00  0.0000000000000D+00  0.0000000000000D+00
   298  2.9700000000000D+00  0.0000000000000D+00  0.0000000000000D+00
   299  2.9800000000000D+00  0.0000000000000D+00  0.0000000000000D+00
   300  2.9900000000000D+00  0.0000000000000D+00  0.0000000000000D+00
   301  3.0000000000000D+00  0.0000000000000D+00  0.0000000000000D+00
   302  3.0100000000000D+00  0.0000000000000D+00  0.0000000000000D+00
   303  3.0200000000000D+00  0.0000000000000D+00  0.0000000000000D+00
   304  3.0300000000000D+00  0.0000000000000D+00  0.0000000000000D+00
   305  3.0400000000000D+00  0.0000000000000D+00  0.0000000000000D+00
   306  3.0500000000000D+00  0.0000000000000D+00  0.0000000000000D+00
   307  3.0600000000000D+00  0.0000000000000D+00  0.0000000000000D+00
   308  3.0700000000000D+00  0.0000000000000D+00  0.0000000000000D+00
   309  3.0800000000000D+00  0.0000000000000D+00  0.0000000000000D+00
   310  3.0900000000000D+00  0.0000000000000D+00  0.0000000000000D+00
   311  3.1000000000000D+00  0.0000000000000D+00  0.0000000000000D+00
   312  3.1100000000000D+00  0.0000000000000D+00  0.0000000000000D+00
   313  3.1200000000000D+00  0.0000000000000D+00  0.0000000000000D+00
   314  3.1300000000000D+00  0.0000000000000D+00  0.0000000000000D+00
   315  3.1400000000000D+00  0.0000000000000D+00  0.0000000000000D+00
   316  3.1500000000000D+00  0.0000000000000D+00  0.0000000000000D+00
   317  3.1600000000000D+00  0.0000000000000D+00  0.0000000000000D+00
   318  3.1700000000000D+00  0.0000000000000D+00  0.0000000000000D+00
   319  3.1800000000000D+00  0.0000000000000D+00  0.0000000000000D+00
   320  3.1900000000000D+00  0.0000000000000D+00  0.0000000000000D+00
   321  3.2000000000000D+00  0.0000000000000D+00  0.0000000000000D+00
   322  3.2100000000000D+00  0.0000000000000D+00  0.0000000000000D+00
   323  3.2200000000000D+00  0.0000000000000D+00  0.0000000000000D+00
   324  3.2300000000000D+00  0.0000000000000D+00  0.0000000000000D+00
   325  3.2400000000000D+00  0.0000000000000D+00  0.0000000000000D+00
   326  3.2500000000000D+00  0.0000000000000D+00  0.0000000000000D+00
   327  3.2600000000000D+00  0.0000000000000D+00  0.0000000000000D+00
   328  3.2700000000000D+00  0.0000000000000D+00  0.0000000000000D+00
   329  3.2800000000000D+00  0.0000000000000D+00  0.0000000000000D+00
   330  3.2900000000000D+00  0.0000000000000D+00  0.0000000000000D+00
   331  3.3000000000000D+00  0.0000000000000D+00  0.0000000000000D+00
   332  3.3100000000000D+00  0.0000000000000D+00  0.0000000000000D+00
   333  3.3200000000000D+00  0.0000000000000D+00  0.0000000000000D+00
   334  3.3300000000000D+00  0.0000000000000D+00  0.0000000000000D+00
   335  3.3400000000000D+00  0.0000000000000D+00  0.0000000000000D+00
   336  3.3500000000000D+00  0.0000000000000D+00  0.0000000000000D+00
   337  3.3600000000000D+00  0.0000000000000D+00  0.0000000000000D+00
   338  3.3700000000000D+00  0.0000000000000D+00  0.0000000000000D+00
   339  3.3800000000000D+00  0.0000000000000D+00  0.0000000000000D+00
   340  3.3900000000000D+00  0.0000000000000D+00  0.0000000000000D+00
   341  3.4000000000000D+00  0.0000000000000D+00  0.0000000000000D+00
   342  3.4100000000000D+00  0.0000000000000D+00  0.0000000000000D+00
   343  3.4200000000000D+00  0.0000000000000D+00  0.0000000000000D+00
   344  3.4300000000000D+00  0.0000000000000D+00  0.0000000000000D+00
   345  3.4400000000000D+00  0.0000000000000D+00  0.0000000000000D+00
   346  3.4500000000000D+00  0.0000000000000D+00  0.0000000000000D+00
   347  3.4600000000000D+00  0.0000000000000D+00  0.0000000000000D+00
   348  3.4700000000000D+00  0.0000000000000D+00  0.0000000000000D+00
   349  3.4800000000000D+00  0.0000000000000D+00  0.0000000000000D+00
   350  3.4900000000000D+00  0.0000000000000D+00  0.0000000000000D+00
   351  3.5000000000000D+00  0.0000000000000D+00  0.0000000000000D+00
   352  3.5100000000000D+00  0.0000000000000D+00  0.0000000000000D+00
   353  3.5200000000000D+00  0.0000000000000D+00  0.0000000000000D+00
   354  3.5300000000000D+00  0.0000000000000D+00  0.0000000000000D+00
   355  3.5400000000000D+00  0.0000000000000D+00  0.0000000000000D+00
   356  3.5500000000000D+00  0.0000000000000D+00  0.0000000000000D+00
   357  3.5600000000000D+00  0.0000000000000D+00  0.0000000000000D+00
   358  3.5700000000000D+00  0.0000000000000D+00  0.0000000000000D+00
   359  3.5800000000000D+00  0.0000000000000D+00  0.0000000000000D+00
   360  3.5900000000000D+00  0.0000000000000D+00  0.0000000000000D+00
   361  3.6000000000000D+00  0.0000000000000D+00  0.0000000000000D+00
   362  3.6100000000000D+00  0.0000000000000D+00  0.0000000000000D+00
   363  3.6200000000000D+00  0.0000000000000D+00  0.0000000000000D+00
   364  3.6300000000000D+00  0.0000000000000D+00  0.0000000000000D+00
   365  3.6400000000000D+00  0.0000000000000D+00  0.0000000000000D+00
   366  3.6500000000000D+00  0.0000000000000D+00  0.0000000000000D+00
   367  3.6600000000000D+00  0.0000000000000D+00  0.0000000000000D+00
   368  3.6700000000000D+00  0.0000000000000D+00  0.0000000000000D+00
   369  3.6800000000000D+00  0.0000000000000D+00  0.0000000000000D+00
   370  3.6900000000000D+00  0.0000000000000D+00  0.0000000000000D+00
   371  3.7000000000000D+00  0.0000000000000D+00  0.0000000000000D+00
   372  3.7100000000000D+00  0.0000000000000D+00  0.0000000000000D+00
   373  3.7200000000000D+00  0.0000000000000D+00  0.0000000000000D+00
   374  3.7300000000000D+00  0.0000000000000D+00  0.0000000000000D+00
   375  3.7400000000000D+00  0.0000000000000D+00  0.0000000000000D+00
   376  3.7500000000000D+00  0.0000000000000D+00  0.0000000000000D+00
   377  3.7600000000000D+00  0.0000000000000D+00  0.0000000000000D+00
   378  3.7700000000000D+00  0.0000000000000D+00  0.0000000000000D+00
   379  3.7800000000000D+00  0.0000000000000D+00  0.0000000000000D+00
   380  3.7900000000000D+00  0.0000000000000D+00  0.0000000000000D+00
   381  3.8000000000000D+00  0.0000000000000D+00  0.0000000000000D+00
   382  3.8100000000000D+00  0.0000000000000D+00  0.0000000000000D+00
   383  3.8200000000000D+00  0.0000000000000D+00  0.0000000000000D+00
   384  3.8300000000000D+00  0.0000000000000D+00  0.0000000000000D+00
   385  3.8400000000000D+00  0.0000000000000D+00  0.0000000000000D+00
   386  3.8500000000000D+00  0.0000000000000D+00  0.0000000000000D+00
   387  3.8600000000000D+00  0.0000000000000D+00  0.0000000000000D+00
   388  3.8700000000000D+00  0.0000000000000D+00  0.0000000000000D+00
   389  3.8800000000000D+00  0.0000000000000D+00  0.0000000000000D+00
   390  3.8900000000000D+00  0.0000000000000D+00  0.0000000000000D+00
   391  3.9000000000000D+00  0.0000000000000D+00  0.0000000000000D+00
   392  3.9100000000000D+00  0.0000000000000D+00  0.0000000000000D+00
   393  3.9200000000000D+00  0.0000000000000D+00  0.0000000000000D+00
   394  3.9300000000000D+00  0.0000000000000D+00  0.0000000000000D+00
   395  3.9400000000000D+00  0.0000000000000D+00  0.0000000000000D+00
   396  3.9500000000000D+00  0.0000000000000D+00  0.0000000000000D+00
   397  3.9600000000000D+00  0.0000000000000D+00  0.0000000000000D+00
   398  3.9700000000000D+00  0.0000000000000D+00  0.0000000000000D+00
   399  3.9800000000000D+00  0.0000000000000D+00  0.0000000000000D+00
   400  3.9900000000000D+00  0.0000000000000D+00  0.0000000000000D+00
   401  4.0000000000000D+00  0.0000000000000D+00  0.0000000000000D+00
   402  4.0100000000000D+00  0.0000000000000D+00  0.0000000000000D+00
   403  4.0200000000000D+00  0.0000000000000D+00  0.0000000000000D+00
   404  4.0300000000000D+00  0.0000000000000D+00  0.0000000000000D+00
   405  4.0400000000000D+00  0.0000000000000D+00  0.0000000000000D+00
   406  4.0500000000000D+00  0.0000000000000D+00  0.0000000000000D+00
   407  4.0600000000000D+00  0.0000000000000D+00  0.0000000000000D+00
   408  4.0700000000000D+00  0.0000000000000D+00  0.0000000000000D+00
   409  4.0800000000000D+00  0.0000000000000D+00  0.0000000000000D+00
   410  4.0900000000000D+00  0.0000000000000D+00  0.0000000000000D+00
   411  4.1000000000000D+00  0.0000000000000D+00  0.0000000000000D+00
   412  4.1100000000000D+00  0.0000000000000D+00  0.0000000000000D+00
   413  4.1200000000000D+00  0.0000000000000D+00  0.0000000000000D+00
   414  4.1300000000000D+00  0.0000000000000D+00  0.0000000000000D+00
   415  4.1400000000000D+00  0.0000000000000D+00  0.0000000000000D+00
   416  4.1500000000000D+00  0.0000000000000D+00  0.0000000000000D+00
   417  4.1600000000000D+00  0.0000000000000D+00  0.0000000000000D+00
   418  4.1700000000000D+00  0.0000000000000D+00  0.0000000000000D+00
   419  4.1800000000000D+00  0.0000000000000D+00  0.0000000000000D+00
   420  4.1900000000000D+00  0.0000000000000D+00  0.0000000000000D+00
   421  4.2000000000000D+00  0.0000000000000D+00  0.0000000000000D+00
   422  4.2100000000000D+00  0.0000000000000D+00  0.0000000000000D+00