Ho    ONCVPSP-3.3.0  r_core=   1.80073   1.50571   1.65647   1.71682
     67.0000     21.0000      220117    zatom,zion,pspd
     8      11   3     4   600     0    pspcod,pspxc,lmax,lloc,mmax,r2well
  5.99000000  0.00000000  0.00000000    rchrg fchrg qchrg
     2     2     2     2     0    nproj
     1     1           extension_switch
   0                         8.9123892704743D+00  6.3357342001296D-01
     1  0.0000000000000D+00 -6.3205218836515D-11  3.9022732267746D-10
     2  1.0000000000000D-02  5.1782999997426D-02 -2.6153040267924D-02
     3  2.0000000000000D-02  1.0349003212435D-01 -5.2143820854696D-02
     4  3.0000000000000D-02  1.5504535529853D-01 -7.7811292538918D-02
     5  4.0000000000000D-02  2.0637368036789D-01 -1.0299681611868D-01
     6  5.0000000000000D-02  2.5740039197582D-01 -1.2754534027094D-01
     7  6.0000000000000D-02  3.0805176555179D-01 -1.5130654710872D-01
     8  7.0000000000000D-02  3.5825517787736D-01 -1.7413595512972D-01
     9  8.0000000000000D-02  4.0793930974047D-01 -1.9589596964053D-01
    10  9.0000000000000D-02  4.5703433926914D-01 -2.1645687122140D-01
    11  1.0000000000000D-01  5.0547212462722D-01 -2.3569773336572D-01
    12  1.1000000000000D-01  5.5318637486002D-01 -2.5350726107824D-01
    13  1.2000000000000D-01  6.0011280779447D-01 -2.6978454294399D-01
    14  1.3000000000000D-01  6.4618929402648D-01 -2.8443970997664D-01
    15  1.4000000000000D-01  6.9135598616600D-01 -2.9739449541609D-01
    16  1.5000000000000D-01  7.3555543265633D-01 -3.0858269056128D-01
    17  1.6000000000000D-01  7.7873267563768D-01 -3.1795049268828D-01
    18  1.7000000000000D-01  8.2083533248351D-01 -3.2545674210715D-01
    19  1.8000000000000D-01  8.6181366080105D-01 -3.3107304644421D-01
    20  1.9000000000000D-01  9.0162060685260D-01 -3.3478379129090D-01
    21  2.0000000000000D-01  9.4021183752000D-01 -3.3658603742637D-01
    22  2.1000000000000D-01  9.7754575609958D-01 -3.3648930588848D-01
    23  2.2000000000000D-01  1.0135835023773D+00 -3.3451525322773D-01
    24  2.3000000000000D-01  1.0482889375918D+00 -3.3069724032049D-01
    25  2.4000000000000D-01  1.0816286150453D+00 -3.2507979913243D-01
    26  2.5000000000000D-01  1.1135717372664D+00 -3.1771800280021D-01
    27  2.6000000000000D-01  1.1440901007651D+00 -3.0867674533097D-01
    28  2.7000000000000D-01  1.1731580295433D+00 -2.9802993809405D-01
    29  2.8000000000000D-01  1.2007522986405D+00 -2.8585963109152D-01
    30  2.9000000000000D-01  1.2268520490881D+00 -2.7225506773325D-01
    31  3.0000000000000D-01  1.2514386957364D+00 -2.5731168250191D-01
    32  3.1000000000000D-01  1.2744958294835D+00 -2.4113005146637D-01
    33  3.2000000000000D-01  1.2960091154900D+00 -2.2381480608243D-01
    34  3.3000000000000D-01  1.3159661889965D+00 -2.0547352110143D-01
    35  3.4000000000000D-01  1.3343565503803D+00 -1.8621558768661D-01
    36  3.5000000000000D-01  1.3511714610853D+00 -1.6615108300976D-01
    37  3.6000000000000D-01  1.3664038420384D+00 -1.4538964766408D-01
    38  3.7000000000000D-01  1.3800481761270D+00 -1.2403938218134D-01
    39  3.8000000000000D-01  1.3921004162556D+00 -1.0220577378273D-01
    40  3.9000000000000D-01  1.4025579004217D+00 -7.9990664221598D-02
    41  4.0000000000000D-01  1.4114192751578D+00 -5.7491269196983D-02
    42  4.1000000000000D-01  1.4186844285751D+00 -3.4799259327844D-02
    43  4.2000000000000D-01  1.4243544341159D+00 -1.1999912088286D-02
    44  4.3000000000000D-01  1.4284315059798D+00  1.0828656587515D-02
    45  4.4000000000000D-01  1.4309189670310D+00  3.3616173104458D-02
    46  4.5000000000000D-01  1.4318212298243D+00  5.6300792353583D-02
    47  4.6000000000000D-01  1.4311437912082D+00  7.8829583099174D-02
    48  4.7000000000000D-01  1.4288932407724D+00  1.0115890751647D-01
    49  4.8000000000000D-01  1.4250772832123D+00  1.2325469086858D-01
    50  4.9000000000000D-01  1.4197047744794D+00  1.4509257844104D-01
    51  5.0000000000000D-01  1.4127857713842D+00  1.6665797801854D-01
    52  5.1000000000000D-01  1.4043315941113D+00  1.8794598738464D-01
    53  5.2000000000000D-01  1.3943549009048D+00  2.0896120753444D-01
    54  5.3000000000000D-01  1.3828697739808D+00  2.2971744350342D-01
    55  5.4000000000000D-01  1.3698918155351D+00  2.5023729591804D-01
    56  5.5000000000000D-01  1.3554382525260D+00  2.7055164755262D-01
    57  5.6000000000000D-01  1.3395280487451D+00  2.9069905032153D-01
    58  5.7000000000000D-01  1.3221820225259D+00  3.1072501922806D-01
    59  5.8000000000000D-01  1.3034229683035D+00  3.3068124082692D-01
    60  5.9000000000000D-01  1.2832757801089D+00  3.5062470471377D-01
    61  6.0000000000000D-01  1.2617675749823D+00  3.7061676743227D-01
    62  6.1000000000000D-01  1.2389278142063D+00  3.9072215896456D-01
    63  6.2000000000000D-01  1.2147884202006D+00  4.1100794264617D-01
    64  6.3000000000000D-01  1.1893838868904D+00  4.3154243990103D-01
    65  6.4000000000000D-01  1.1627513813494D+00  4.5239413162818D-01
    66  6.5000000000000D-01  1.1349308345435D+00  4.7363054837629D-01
    67  6.6000000000000D-01  1.1059650190459D+00  4.9531716161105D-01
    68  6.7000000000000D-01  1.0758996116719D+00  5.1751628841272D-01
    69  6.8000000000000D-01  1.0447832390872D+00  5.4028602183027D-01
    70  6.9000000000000D-01  1.0126675045731D+00  5.6367919886654D-01
    71  7.0000000000000D-01  9.7960699429353D-01  5.8774241767735D-01
    72  7.1000000000000D-01  9.4565926159095D-01  6.1251511503495D-01
    73  7.2000000000000D-01  9.1088478805062D-01  6.3802871444234D-01
    74  7.3000000000000D-01  8.7534692030227D-01  6.6430585449151D-01
    75  7.4000000000000D-01  8.3911178178159D-01  6.9135970614980D-01
    76  7.5000000000000D-01  8.0224815894545D-01  7.1919338663164D-01
    77  7.6000000000000D-01  7.6482736172024D-01  7.4779947639462D-01
    78  7.7000000000000D-01  7.2692305826124D-01  7.7715964458962D-01
    79  7.8000000000000D-01  6.8861108440873D-01  8.0724438701571D-01
    80  7.9000000000000D-01  6.4996922853893D-01  8.3801287929257D-01
    81  8.0000000000000D-01  6.1107699282290D-01  8.6941294658657D-01
    82  8.1000000000000D-01  5.7201533221792D-01  9.0138114982686D-01
    83  8.2000000000000D-01  5.3286637282236D-01  9.3384298694245D-01
    84  8.3000000000000D-01  4.9371311151880D-01  9.6671320626386D-01
    85  8.4000000000000D-01  4.5463909911161D-01  9.9989622787442D-01
    86  8.5000000000000D-01  4.1572810942528D-01  1.0332866673946D+00
    87  8.6000000000000D-01  3.7706379706794D-01  1.0667699554525D+00
    88  8.7000000000000D-01  3.3872934677509D-01  1.1002230449554D+00
    89  8.8000000000000D-01  3.0080711742813D-01  1.1335151972449D+00
    90  8.9000000000000D-01  2.6337828398685D-01  1.1665088373193D+00
    91  9.0000000000000D-01  2.2652248068237D-01  1.1990604675441D+00
    92  9.1000000000000D-01  1.9031744888238D-01  1.2310216286714D+00
    93  9.2000000000000D-01  1.5483869306368D-01  1.2622398965535D+00
    94  9.3000000000000D-01  1.2015914830314D-01  1.2925599026905D+00
    95  9.4000000000000D-01  8.6348862628272D-02  1.3218243666859D+00
    96  9.5000000000000D-01  5.3474697449930D-02  1.3498751288243D+00
    97  9.6000000000000D-01  2.1600049132184D-02  1.3765541713179D+00
    98  9.7000000000000D-01 -9.2154054613852D-03  1.4017046173065D+00
    99  9.8000000000000D-01 -3.8915936869296D-02  1.4251716974326D+00
   100  9.9000000000000D-01 -6.7449962114235D-02  1.4468036747315D+00
   101  1.0000000000000D+00 -9.4770213062250D-02  1.4664527197328D+00
   102  1.0100000000000D+00 -1.2083387252607D-01  1.4839757288665D+00
   103  1.0200000000000D+00 -1.4560267704267D-01  1.4992350808228D+00
   104  1.0300000000000D+00 -1.6904298569955D-01  1.5120993270270D+00
   105  1.0400000000000D+00 -1.9112581488544D-01  1.5224438141237D+00
   106  1.0500000000000D+00 -2.1182683935472D-01  1.5301512381583D+00
   107  1.0600000000000D+00 -2.3112636054448D-01  1.5351121320730D+00
   108  1.0700000000000D+00 -2.4900924357173D-01  1.5372252898556D+00
   109  1.0800000000000D+00 -2.6546482495365D-01  1.5363981328457D+00
   110  1.0900000000000D+00 -2.8048679357361D-01  1.5325470253858D+00
   111  1.1000000000000D+00 -2.9407304796690D-01  1.5255975489179D+00
   112  1.1100000000000D+00 -3.0622553347712D-01  1.5154847452551D+00
   113  1.1200000000000D+00 -3.1695006328701D-01  1.5021533412863D+00
   114  1.1300000000000D+00 -3.2625612778873D-01  1.4855579688574D+00
   115  1.1400000000000D+00 -3.3415669708227D-01  1.4656633945510D+00
   116  1.1500000000000D+00 -3.4066802169467D-01  1.4424447748922D+00
   117  1.1600000000000D+00 -3.4580943683792D-01  1.4158879530864D+00
   118  1.1700000000000D+00 -3.4960317569540D-01  1.3859898135209D+00
   119  1.1800000000000D+00 -3.5207419721042D-01  1.3527587097402D+00
   120  1.1900000000000D+00 -3.5325003380782D-01  1.3162149809425D+00
   121  1.2000000000000D+00 -3.5316066435548D-01  1.2763915709471D+00
   122  1.2100000000000D+00 -3.5183841729377D-01  1.2333347613325D+00
   123  1.2200000000000D+00 -3.4931790826947D-01  1.1871050272776D+00
   124  1.2300000000000D+00 -3.4563601647529D-01  1.1377780237540D+00
   125  1.2400000000000D+00 -3.4083190264492D-01  1.0854457032639D+00
   126  1.2500000000000D+00 -3.3494707063870D-01  1.0302175613845D+00
   127  1.2600000000000D+00 -3.2802547427137D-01  9.7222200485670D-01
   128  1.2700000000000D+00 -3.2011366888688D-01  9.1160782644322D-01
   129  1.2800000000000D+00 -3.1126100540319D-01  8.4854576233360D-01
   130  1.2900000000000D+00 -3.0151986439299D-01  7.8323010702608D-01
   131  1.3000000000000D+00 -2.9094592438512D-01  7.1588034447027D-01
   132  1.3100000000000D+00 -2.7959845563798D-01  6.4674274049924D-01
   133  1.3200000000000D+00 -2.6754063162487D-01  5.7609184614936D-01
   134  1.3300000000000D+00 -2.5483984403309D-01  5.0423183114773D-01
   135  1.3400000000000D+00 -2.4156800432957D-01  4.3149755405013D-01
   136  1.3500000000000D+00 -2.2780181692049D-01  3.5825528467322D-01
   137  1.3600000000000D+00 -2.1362299710291D-01  2.8490293911208D-01
   138  1.3700000000000D+00 -1.9911840899663D-01  2.1186969696385D-01
   139  1.3800000000000D+00 -1.8438009583294D-01  1.3961485721658D-01
   140  1.3900000000000D+00 -1.6950516051888D-01  6.8625721645615D-02
   141  1.4000000000000D+00 -1.5459546467208D-01 -5.8565737568347D-04
   142  1.4100000000000D+00 -1.3975709575264D-01 -6.7487114566827D-02
   143  1.4200000000000D+00 -1.2509954904201D-01 -1.3153265848471D-01
   144  1.4300000000000D+00 -1.1073457799125D-01 -1.9217063891263D-01
   145  1.4400000000000D+00 -9.6774632303274D-02 -2.4885418690336D-01
   146  1.4500000000000D+00 -8.3330830860693D-02 -3.0105418915762D-01
   147  1.4600000000000D+00 -7.0510345199220D-02 -3.4827544332078D-01
   148  1.4700000000000D+00 -5.8413340091010D-02 -3.9007497530166D-01
   149  1.4800000000000D+00 -4.7128420246835D-02 -4.2608885471767D-01
   150  1.4900000000000D+00 -3.6729875342026D-02 -4.5604731835289D-01
   151  1.5000000000000D+00 -2.7268239256335D-02 -4.7982957684750D-01
   152  1.5100000000000D+00 -1.8764514302930D-02 -4.9749579041793D-01
   153  1.5200000000000D+00 -1.1215284879364D-02 -5.0924882616249D-01
   154  1.5300000000000D+00 -4.5979041305205D-03 -5.1539819981549D-01
   155  1.5400000000000D+00  1.1173284569915D-03 -5.1628373788316D-01
   156  1.5500000000000D+00  5.9640978175438D-03 -5.1225619949802D-01
   157  1.5600000000000D+00  9.9826650767527D-03 -5.0369459533445D-01
   158  1.5700000000000D+00  1.3218275648169D-02 -4.9099665821164D-01
   159  1.5800000000000D+00  1.5720748348111D-02 -4.7457691001074D-01
   160  1.5900000000000D+00  1.7543766266091D-02 -4.5486294068294D-01
   161  1.6000000000000D+00  1.8744252728213D-02 -4.3229225769444D-01
   162  1.6100000000000D+00  1.9381705237319D-02 -4.0730891071365D-01
   163  1.6200000000000D+00  1.9517513456290D-02 -3.8036004444069D-01
   164  1.6300000000000D+00  1.9214271331499D-02 -3.5189243571735D-01
   165  1.6400000000000D+00  1.8535085515496D-02 -3.2234902072805D-01
   166  1.6500000000000D+00  1.7542885389297D-02 -2.9216543772235D-01
   167  1.6600000000000D+00  1.6299742377300D-02 -2.6176662463071D-01
   168  1.6700000000000D+00  1.4866204044081D-02 -2.3156349773623D-01
   169  1.6800000000000D+00  1.3300647825696D-02 -2.0194973452098D-01
   170  1.6900000000000D+00  1.1658660490707D-02 -1.7329869037906D-01
   171  1.7000000000000D+00  9.9924478444147D-03 -1.4596047113215D-01
   172  1.7100000000000D+00  8.3502805664766D-03 -1.2025918985725D-01
   173  1.7200000000000D+00  6.7759795690795D-03 -9.6490424477513D-02
   174  1.7300000000000D+00  5.3084469246160D-03 -7.4918905443041D-02
   175  1.7400000000000D+00  3.9816335128311D-03 -5.5781804058996D-02
   176  1.7500000000000D+00  2.8233168095088D-03 -3.9275168138631D-02
   177  1.7600000000000D+00  1.8514946065492D-03 -2.5509151633306D-02
   178  1.7700000000000D+00  1.0818576251833D-03 -1.4611672287864D-02
   179  1.7800000000000D+00  5.4291791908993D-04 -6.9100986520830D-03
   180  1.7900000000000D+00  2.3887922165765D-04 -2.4539075284056D-03
   181  1.8000000000000D+00  9.6029622104003D-05 -4.3762326663029D-04
   182  1.8100000000000D+00  2.9350002596963D-05  1.3167796583999D-04
   183  1.8200000000000D+00  2.9423111424570D-06  4.5548253600327D-05
   184  1.8300000000000D+00 -2.2793926409546D-06 -6.5216744684063D-05
   185  1.8400000000000D+00 -7.3214124268942D-07 -3.6508435148430D-05
   186  1.8500000000000D+00  6.7333718538966D-07  8.4850582885083D-06
   187  1.8600000000000D+00  5.4376150481267D-07  8.4148253715752D-06
   188  1.8700000000000D+00 -1.4061189911766D-07  5.6503166831993D-07
   189  1.8800000000000D+00 -2.3266378000705D-07  9.3493086004760D-07
   190  1.8900000000000D+00  0.0000000000000D+00  0.0000000000000D+00
   191  1.9000000000000D+00  0.0000000000000D+00  0.0000000000000D+00
   192  1.9100000000000D+00  0.0000000000000D+00  0.0000000000000D+00
   193  1.9200000000000D+00  0.0000000000000D+00  0.0000000000000D+00
   194  1.9300000000000D+00  0.0000000000000D+00  0.0000000000000D+00
   195  1.9400000000000D+00  0.0000000000000D+00  0.0000000000000D+00
   196  1.9500000000000D+00  0.0000000000000D+00  0.0000000000000D+00
   197  1.9600000000000D+00  0.0000000000000D+00  0.0000000000000D+00
   198  1.9700000000000D+00  0.0000000000000D+00  0.0000000000000D+00
   199  1.9800000000000D+00  0.0000000000000D+00  0.0000000000000D+00
   200  1.9900000000000D+00  0.0000000000000D+00  0.0000000000000D+00
   201  2.0000000000000D+00  0.0000000000000D+00  0.0000000000000D+00
   202  2.0100000000000D+00  0.0000000000000D+00  0.0000000000000D+00
   203  2.0200000000000D+00  0.0000000000000D+00  0.0000000000000D+00
   204  2.0300000000000D+00  0.0000000000000D+00  0.0000000000000D+00
   205  2.0400000000000D+00  0.0000000000000D+00  0.0000000000000D+00
   206  2.0500000000000D+00  0.0000000000000D+00  0.0000000000000D+00
   207  2.0600000000000D+00  0.0000000000000D+00  0.0000000000000D+00
   208  2.0700000000000D+00  0.0000000000000D+00  0.0000000000000D+00
   209  2.0800000000000D+00  0.0000000000000D+00  0.0000000000000D+00
   210  2.0900000000000D+00  0.0000000000000D+00  0.0000000000000D+00
   211  2.1000000000000D+00  0.0000000000000D+00  0.0000000000000D+00
   212  2.1100000000000D+00  0.0000000000000D+00  0.0000000000000D+00
   213  2.1200000000000D+00  0.0000000000000D+00  0.0000000000000D+00
   214  2.1300000000000D+00  0.0000000000000D+00  0.0000000000000D+00
   215  2.1400000000000D+00  0.0000000000000D+00  0.0000000000000D+00
   216  2.1500000000000D+00  0.0000000000000D+00  0.0000000000000D+00
   217  2.1600000000000D+00  0.0000000000000D+00  0.0000000000000D+00
   218  2.1700000000000D+00  0.0000000000000D+00  0.0000000000000D+00
   219  2.1800000000000D+00  0.0000000000000D+00  0.0000000000000D+00
   220  2.1900000000000D+00  0.0000000000000D+00  0.0000000000000D+00
   221  2.2000000000000D+00  0.0000000000000D+00  0.0000000000000D+00
   222  2.2100000000000D+00  0.0000000000000D+00  0.0000000000000D+00
   223  2.2200000000000D+00  0.0000000000000D+00  0.0000000000000D+00
   224  2.2300000000000D+00  0.0000000000000D+00  0.0000000000000D+00
   225  2.2400000000000D+00  0.0000000000000D+00  0.0000000000000D+00
   226  2.2500000000000D+00  0.0000000000000D+00  0.0000000000000D+00
   227  2.2600000000000D+00  0.0000000000000D+00  0.0000000000000D+00
   228  2.2700000000000D+00  0.0000000000000D+00  0.0000000000000D+00
   229  2.2800000000000D+00  0.0000000000000D+00  0.0000000000000D+00
   230  2.2900000000000D+00  0.0000000000000D+00  0.0000000000000D+00
   231  2.3000000000000D+00  0.0000000000000D+00  0.0000000000000D+00
   232  2.3100000000000D+00  0.0000000000000D+00  0.0000000000000D+00
   233  2.3200000000000D+00  0.0000000000000D+00  0.0000000000000D+00
   234  2.3300000000000D+00  0.0000000000000D+00  0.0000000000000D+00
   235  2.3400000000000D+00  0.0000000000000D+00  0.0000000000000D+00
   236  2.3500000000000D+00  0.0000000000000D+00  0.0000000000000D+00
   237  2.3600000000000D+00  0.0000000000000D+00  0.0000000000000D+00
   238  2.3700000000000D+00  0.0000000000000D+00  0.0000000000000D+00
   239  2.3800000000000D+00  0.0000000000000D+00  0.0000000000000D+00
   240  2.3900000000000D+00  0.0000000000000D+00  0.0000000000000D+00
   241  2.4000000000000D+00  0.0000000000000D+00  0.0000000000000D+00
   242  2.4100000000000D+00  0.0000000000000D+00  0.0000000000000D+00
   243  2.4200000000000D+00  0.0000000000000D+00  0.0000000000000D+00
   244  2.4300000000000D+00  0.0000000000000D+00  0.0000000000000D+00
   245  2.4400000000000D+00  0.0000000000000D+00  0.0000000000000D+00
   246  2.4500000000000D+00  0.0000000000000D+00  0.0000000000000D+00
   247  2.4600000000000D+00  0.0000000000000D+00  0.0000000000000D+00
   248  2.4700000000000D+00  0.0000000000000D+00  0.0000000000000D+00
   249  2.4800000000000D+00  0.0000000000000D+00  0.0000000000000D+00
   250  2.4900000000000D+00  0.0000000000000D+00  0.0000000000000D+00
   251  2.5000000000000D+00  0.0000000000000D+00  0.0000000000000D+00
   252  2.5100000000000D+00  0.0000000000000D+00  0.0000000000000D+00
   253  2.5200000000000D+00  0.0000000000000D+00  0.0000000000000D+00
   254  2.5300000000000D+00  0.0000000000000D+00  0.0000000000000D+00
   255  2.5400000000000D+00  0.0000000000000D+00  0.0000000000000D+00
   256  2.5500000000000D+00  0.0000000000000D+00  0.0000000000000D+00
   257  2.5600000000000D+00  0.0000000000000D+00  0.0000000000000D+00
   258  2.5700000000000D+00  0.0000000000000D+00  0.0000000000000D+00
   259  2.5800000000000D+00  0.0000000000000D+00  0.0000000000000D+00
   260  2.5900000000000D+00  0.0000000000000D+00  0.0000000000000D+00
   261  2.6000000000000D+00  0.0000000000000D+00  0.0000000000000D+00
   262  2.6100000000000D+00  0.0000000000000D+00  0.0000000000000D+00
   263  2.6200000000000D+00  0.0000000000000D+00  0.0000000000000D+00
   264  2.6300000000000D+00  0.0000000000000D+00  0.0000000000000D+00
   265  2.6400000000000D+00  0.0000000000000D+00  0.0000000000000D+00
   266  2.6500000000000D+00  0.0000000000000D+00  0.0000000000000D+00
   267  2.6600000000000D+00  0.0000000000000D+00  0.0000000000000D+00
   268  2.6700000000000D+00  0.0000000000000D+00  0.0000000000000D+00
   269  2.6800000000000D+00  0.0000000000000D+00  0.0000000000000D+00
   270  2.6900000000000D+00  0.0000000000000D+00  0.0000000000000D+00
   271  2.7000000000000D+00  0.0000000000000D+00  0.0000000000000D+00
   272  2.7100000000000D+00  0.0000000000000D+00  0.0000000000000D+00
   273  2.7200000000000D+00  0.0000000000000D+00  0.0000000000000D+00
   274  2.7300000000000D+00  0.0000000000000D+00  0.0000000000000D+00
   275  2.7400000000000D+00  0.0000000000000D+00  0.0000000000000D+00
   276  2.7500000000000D+00  0.0000000000000D+00  0.0000000000000D+00
   277  2.7600000000000D+00  0.0000000000000D+00  0.0000000000000D+00
   278  2.7700000000000D+00  0.0000000000000D+00  0.0000000000000D+00
   279  2.7800000000000D+00  0.0000000000000D+00  0.0000000000000D+00
   280  2.7900000000000D+00  0.0000000000000D+00  0.0000000000000D+00
   281  2.8000000000000D+00  0.0000000000000D+00  0.0000000000000D+00
   282  2.8100000000000D+00  0.0000000000000D+00  0.0000000000000D+00
   283  2.8200000000000D+00  0.0000000000000D+00  0.0000000000000D+00
   284  2.8300000000000D+00  0.0000000000000D+00  0.0000000000000D+00
   285  2.8400000000000D+00  0.0000000000000D+00  0.0000000000000D+00
   286  2.8500000000000D+00  0.0000000000000D+00  0.0000000000000D+00
   287  2.8600000000000D+00  0.0000000000000D+00  0.0000000000000D+00
   288  2.8700000000000D+00  0.0000000000000D+00  0.0000000000000D+00
   289  2.8800000000000D+00  0.0000000000000D+00  0.0000000000000D+00
   290  2.8900000000000D+00  0.0000000000000D+00  0.0000000000000D+00
   291  2.9000000000000D+00  0.0000000000000D+00  0.0000000000000D+00
   292  2.9100000000000D+00  0.0000000000000D+00  0.0000000000000D+00
   293  2.9200000000000D+00  0.0000000000000D+00  0.0000000000000D+00
   294  2.9300000000000D+00  0.0000000000000D+00  0.0000000000000D+00
   295  2.9400000000000D+00  0.0000000000000D+00  0.0000000000000D+00
   296  2.9500000000000D+00  0.0000000000000D+00  0.0000000000000D+00
   297  2.9600000000000D+00  0.0000000000000D+00  0.0000000000000D+00
   298  2.9700000000000D+00  0.0000000000000D+00  0.0000000000000D+00
   299  2.9800000000000D+00  0.0000000000000D+00  0.0000000000000D+00
   300  2.9900000000000D+00  0.0000000000000D+00  0.0000000000000D+00
   301  3.0000000000000D+00  0.0000000000000D+00  0.0000000000000D+00
   302  3.0100000000000D+00  0.0000000000000D+00  0.0000000000000D+00
   303  3.0200000000000D+00  0.0000000000000D+00  0.0000000000000D+00
   304  3.0300000000000D+00  0.0000000000000D+00  0.0000000000000D+00
   305  3.0400000000000D+00  0.0000000000000D+00  0.0000000000000D+00
   306  3.0500000000000D+00  0.0000000000000D+00  0.0000000000000D+00
   307  3.0600000000000D+00  0.0000000000000D+00  0.0000000000000D+00
   308  3.0700000000000D+00  0.0000000000000D+00  0.0000000000000D+00
   309  3.0800000000000D+00  0.0000000000000D+00  0.0000000000000D+00
   310  3.0900000000000D+00  0.0000000000000D+00  0.0000000000000D+00
   311  3.1000000000000D+00  0.0000000000000D+00  0.0000000000000D+00
   312  3.1100000000000D+00  0.0000000000000D+00  0.0000000000000D+00
   313  3.1200000000000D+00  0.0000000000000D+00  0.0000000000000D+00
   314  3.1300000000000D+00  0.0000000000000D+00  0.0000000000000D+00
   315  3.1400000000000D+00  0.0000000000000D+00  0.0000000000000D+00
   316  3.1500000000000D+00  0.0000000000000D+00  0.0000000000000D+00
   317  3.1600000000000D+00  0.0000000000000D+00  0.0000000000000D+00
   318  3.1700000000000D+00  0.0000000000000D+00  0.0000000000000D+00
   319  3.1800000000000D+00  0.0000000000000D+00  0.0000000000000D+00
   320  3.1900000000000D+00  0.0000000000000D+00  0.0000000000000D+00
   321  3.2000000000000D+00  0.0000000000000D+00  0.0000000000000D+00
   322  3.2100000000000D+00  0.0000000000000D+00  0.0000000000000D+00
   323  3.2200000000000D+00  0.0000000000000D+00  0.0000000000000D+00
   324  3.2300000000000D+00  0.0000000000000D+00  0.0000000000000D+00
   325  3.2400000000000D+00  0.0000000000000D+00  0.0000000000000D+00
   326  3.2500000000000D+00  0.0000000000000D+00  0.0000000000000D+00
   327  3.2600000000000D+00  0.0000000000000D+00  0.0000000000000D+00
   328  3.2700000000000D+00  0.0000000000000D+00  0.0000000000000D+00
   329  3.2800000000000D+00  0.0000000000000D+00  0.0000000000000D+00
   330  3.2900000000000D+00  0.0000000000000D+00  0.0000000000000D+00
   331  3.3000000000000D+00  0.0000000000000D+00  0.0000000000000D+00
   332  3.3100000000000D+00  0.0000000000000D+00  0.0000000000000D+00
   333  3.3200000000000D+00  0.0000000000000D+00  0.0000000000000D+00
   334  3.3300000000000D+00  0.0000000000000D+00  0.0000000000000D+00
   335  3.3400000000000D+00  0.0000000000000D+00  0.0000000000000D+00
   336  3.3500000000000D+00  0.0000000000000D+00  0.0000000000000D+00
   337  3.3600000000000D+00  0.0000000000000D+00  0.0000000000000D+00
   338  3.3700000000000D+00  0.0000000000000D+00  0.0000000000000D+00
   339  3.3800000000000D+00  0.0000000000000D+00  0.0000000000000D+00
   340  3.3900000000000D+00  0.0000000000000D+00  0.0000000000000D+00
   341  3.4000000000000D+00  0.0000000000000D+00  0.0000000000000D+00
   342  3.4100000000000D+00  0.0000000000000D+00  0.0000000000000D+00
   343  3.4200000000000D+00  0.0000000000000D+00  0.0000000000000D+00
   344  3.4300000000000D+00  0.0000000000000D+00  0.0000000000000D+00
   345  3.4400000000000D+00  0.0000000000000D+00  0.0000000000000D+00
   346  3.4500000000000D+00  0.0000000000000D+00  0.0000000000000D+00
   347  3.4600000000000D+00  0.0000000000000D+00  0.0000000000000D+00
   348  3.4700000000000D+00  0.0000000000000D+00  0.0000000000000D+00
   349  3.4800000000000D+00  0.0000000000000D+00  0.0000000000000D+00
   350  3.4900000000000D+00  0.0000000000000D+00  0.0000000000000D+00
   351  3.5000000000000D+00  0.0000000000000D+00  0.0000000000000D+00
   352  3.5100000000000D+00  0.0000000000000D+00  0.0000000000000D+00
   353  3.5200000000000D+00  0.0000000000000D+00  0.0000000000000D+00
   354  3.5300000000000D+00  0.0000000000000D+00  0.0000000000000D+00
   355  3.5400000000000D+00  0.0000000000000D+00  0.0000000000000D+00
   356  3.5500000000000D+00  0.0000000000000D+00  0.0000000000000D+00
   357  3.5600000000000D+00  0.0000000000000D+00  0.0000000000000D+00
   358  3.5700000000000D+00  0.0000000000000D+00  0.0000000000000D+00
   359  3.5800000000000D+00  0.0000000000000D+00  0.0000000000000D+00
   360  3.5900000000000D+00  0.0000000000000D+00  0.0000000000000D+00
   361  3.6000000000000D+00  0.0000000000000D+00  0.0000000000000D+00
   362  3.6100000000000D+00  0.0000000000000D+00  0.0000000000000D+00
   363  3.6200000000000D+00  0.0000000000000D+00  0.0000000000000D+00
   364  3.6300000000000D+00  0.0000000000000D+00  0.0000000000000D+00
   365  3.6400000000000D+00  0.0000000000000D+00  0.0000000000000D+00
   366  3.6500000000000D+00  0.0000000000000D+00  0.0000000000000D+00
   367  3.6600000000000D+00  0.0000000000000D+00  0.0000000000000D+00
   368  3.6700000000000D+00  0.0000000000000D+00  0.0000000000000D+00
   369  3.6800000000000D+00  0.0000000000000D+00  0.0000000000000D+00
   370  3.6900000000000D+00  0.0000000000000D+00  0.0000000000000D+00
   371  3.7000000000000D+00  0.0000000000000D+00  0.0000000000000D+00
   372  3.7100000000000D+00  0.0000000000000D+00  0.0000000000000D+00
   373  3.7200000000000D+00  0.0000000000000D+00  0.0000000000000D+00
   374  3.7300000000000D+00  0.0000000000000D+00  0.0000000000000D+00
   375  3.7400000000000D+00  0.0000000000000D+00  0.0000000000000D+00
   376  3.7500000000000D+00  0.0000000000000D+00  0.0000000000000D+00
   377  3.7600000000000D+00  0.0000000000000D+00  0.0000000000000D+00
   378  3.7700000000000D+00  0.0000000000000D+00  0.0000000000000D+00
   379  3.7800000000000D+00  0.0000000000000D+00  0.0000000000000D+00
   380  3.7900000000000D+00  0.0000000000000D+00  0.0000000000000D+00
   381  3.8000000000000D+00  0.0000000000000D+00  0.0000000000000D+00
   382  3.8100000000000D+00  0.0000000000000D+00  0.0000000000000D+00
   383  3.8200000000000D+00  0.0000000000000D+00  0.0000000000000D+00
   384  3.8300000000000D+00  0.0000000000000D+00  0.0000000000000D+00
   385  3.8400000000000D+00  0.0000000000000D+00  0.0000000000000D+00
   386  3.8500000000000D+00  0.0000000000000D+00  0.0000000000000D+00
   387  3.8600000000000D+00  0.0000000000000D+00  0.0000000000000D+00
   388  3.8700000000000D+00  0.0000000000000D+00  0.0000000000000D+00
   389  3.8800000000000D+00  0.0000000000000D+00  0.0000000000000D+00
   390  3.8900000000000D+00  0.0000000000000D+00  0.0000000000000D+00
   391  3.9000000000000D+00  0.0000000000000D+00  0.0000000000000D+00
   392  3.9100000000000D+00  0.0000000000000D+00  0.0000000000000D+00
   393  3.9200000000000D+00  0.0000000000000D+00  0.0000000000000D+00
   394  3.9300000000000D+00  0.0000000000000D+00  0.0000000000000D+00
   395  3.9400000000000D+00  0.0000000000000D+00  0.0000000000000D+00
   396  3.9500000000000D+00  0.0000000000000D+00  0.0000000000000D+00
   397  3.9600000000000D+00  0.0000000000000D+00  0.0000000000000D+00
   398  3.9700000000000D+00  0.0000000000000D+00  0.0000000000000D+00
   399  3.9800000000000D+00  0.0000000000000D+00  0.0000000000000D+00
   400  3.9900000000000D+00  0.0000000000000D+00  0.0000000000000D+00
   401  4.0000000000000D+00  0.0000000000000D+00  0.0000000000000D+00
   402  4.0100000000000D+00  0.0000000000000D+00  0.0000000000000D+00
   403  4.0200000000000D+00  0.0000000000000D+00  0.0000000000000D+00
   404  4.0300000000000D+00  0.0000000000000D+00  0.0000000000000D+00
   405  4.0400000000000D+00  0.0000000000000D+00  0.0000000000000D+00
   406  4.0500000000000D+00  0.0000000000000D+00  0.0000000000000D+00
   407  4.0600000000000D+00  0.0000000000000D+00  0.0000000000000D+00
   408  4.0700000000000D+00  0.0000000000000D+00  0.0000000000000D+00
   409  4.0800000000000D+00  0.0000000000000D+00  0.0000000000000D+00
   410  4.0900000000000D+00  0.0000000000000D+00  0.0000000000000D+00
   411  4.1000000000000D+00  0.0000000000000D+00  0.0000000000000D+00
   412  4.1100000000000D+00  0.0000000000000D+00  0.0000000000000D+00
   413  4.1200000000000D+00  0.0000000000000D+00  0.0000000000000D+00
   414  4.1300000000000D+00  0.0000000000000D+00  0.0000000000000D+00
   415  4.1400000000000D+00  0.0000000000000D+00  0.0000000000000D+00
   416  4.1500000000000D+00  0.0000000000000D+00  0.0000000000000D+00
   417  4.1600000000000D+00  0.0000000000000D+00  0.0000000000000D+00
   418  4.1700000000000D+00  0.0000000000000D+00  0.0000000000000D+00
   419  4.1800000000000D+00  0.0000000000000D+00  0.0000000000000D+00
   420  4.1900000000000D+00  0.0000000000000D+00  0.0000000000000D+00
   421  4.2000000000000D+00  0.0000000000000D+00  0.0000000000000D+00
   422  4.2100000000000D+00  0.0000000000000D+00  0.0000000000000D+00