Cl    ONCVPSP-3.3.0  r_core=   1.56009   1.35202   1.75774
     17.0000      7.0000      220117    zatom,zion,pspd
     8      11   2     4   600     0    pspcod,pspxc,lmax,lloc,mmax,r2well
  5.99000000  0.00000000  0.00000000    rchrg fchrg qchrg
     2     2     2     0     0    nproj
     1     1           extension_switch
   0                         8.1392959092559D+00  6.9871994889470D-01
     1  0.0000000000000D+00  4.9376924771138D-10 -2.8720830991258D-09
     2  1.0000000000000D-02  4.6684783491133D-02 -1.7895377597826D-02
     3  2.0000000000000D-02  9.3344223997907D-02 -3.5863104740292D-02
     4  3.0000000000000D-02  1.3995256327710D-01 -5.3973166134877D-02
     5  4.0000000000000D-02  1.8648322029767D-01 -7.2290860007978D-02
     6  5.0000000000000D-02  2.3290839904284D-01 -9.0874562097751D-02
     7  6.0000000000000D-02  2.7919871898904D-01 -1.0977361624049D-01
     8  7.0000000000000D-02  3.2532287522970D-01 -1.2902639030919D-01
     9  8.0000000000000D-02  3.7124733471837D-01 -1.4865853339100D-01
    10  9.0000000000000D-02  4.1693607450367D-01 -1.6868146659341D-01
    11  1.0000000000000D-01  4.6235036712984D-01 -1.8909113580802D-01
    12  1.1000000000000D-01  5.0744861759069D-01 -2.0986705020380D-01
    13  1.2000000000000D-01  5.5218625536666D-01 -2.3097162524883D-01
    14  1.3000000000000D-01  5.9651568415780D-01 -2.5234984375391D-01
    15  1.4000000000000D-01  6.4038629096482D-01 -2.7392924288658D-01
    16  1.5000000000000D-01  6.8374451518301D-01 -2.9562022941303D-01
    17  1.6000000000000D-01  7.2653397737530D-01 -3.1731671968793D-01
    18  1.7000000000000D-01  7.6869566639840D-01 -3.3889709522619D-01
    19  1.8000000000000D-01  8.1016818258571D-01 -3.6022545915463D-01
    20  1.9000000000000D-01  8.5088803375969D-01 -3.8115317355105D-01
    21  2.0000000000000D-01  8.9078997996923D-01 -4.0152065272512D-01
    22  2.1000000000000D-01  9.2980742203961D-01 -4.2115938296581D-01
    23  2.2000000000000D-01  9.6787282829692D-01 -4.3989413525250D-01
    24  2.3000000000000D-01  1.0049181931980D+00 -4.5754533397252D-01
    25  2.4000000000000D-01  1.0408755210712D+00 -4.7393154186655D-01
    26  2.5000000000000D-01  1.0756773277607D+00 -4.8887201928613D-01
    27  2.6000000000000D-01  1.1092571526772D+00 -5.0218931443234D-01
    28  2.7000000000000D-01  1.1415500735915D+00 -5.1371184057719D-01
    29  2.8000000000000D-01  1.1724932164691D+00 -5.2327639636425D-01
    30  2.9000000000000D-01  1.2020262527399D+00 -5.3073058614059D-01
    31  3.0000000000000D-01  1.2300918766100D+00 -5.3593509887760D-01
    32  3.1000000000000D-01  1.2566362553709D+00 -5.3876580656614D-01
    33  3.2000000000000D-01  1.2816094461178D+00 -5.3911564598466D-01
    34  3.3000000000000D-01  1.3049657728603D+00 -5.3689625138612D-01
    35  3.4000000000000D-01  1.3266641586784D+00 -5.3203930987077D-01
    36  3.5000000000000D-01  1.3466684083347D+00 -5.2449761593415D-01
    37  3.6000000000000D-01  1.3649474375889D+00 -5.1424580682429D-01
    38  3.7000000000000D-01  1.3814754463548D+00 -5.0128076581967D-01
    39  3.8000000000000D-01  1.3962320337825D+00 -4.8562168625763D-01
    40  3.9000000000000D-01  1.4092022543202D+00 -4.6730979500152D-01
    41  4.0000000000000D-01  1.4203766147920D+00 -4.4640773993471D-01
    42  4.1000000000000D-01  1.4297510135130D+00 -4.2299865190576D-01
    43  4.2000000000000D-01  1.4373266234189D+00 -3.9718489722277D-01
    44  4.3000000000000D-01  1.4431097221147D+00 -3.6908654220412D-01
    45  4.4000000000000D-01  1.4471114726126D+00 -3.3883955634448D-01
    46  4.5000000000000D-01  1.4493476593356D+00 -3.0659378525856D-01
    47  4.6000000000000D-01  1.4498383846791D+00 -2.7251072863877D-01
    48  4.7000000000000D-01  1.4486077320511D+00 -2.3676116193411D-01
    49  4.8000000000000D-01  1.4456834018285D+00 -1.9952264326161D-01
    50  4.9000000000000D-01  1.4410963270741D+00 -1.6097694914911D-01
    51  5.0000000000000D-01  1.4348802761409D+00 -1.2130748403611D-01
    52  5.1000000000000D-01  1.4270714494448D+00 -8.0696709004067D-02
    53  5.2000000000000D-01  1.4177080777172D+00 -3.9323634954414D-02
    54  5.3000000000000D-01  1.4068300289379D+00  2.6385755992809D-03
    55  5.4000000000000D-01  1.3944784309221D+00  4.5024855792751D-02
    56  5.5000000000000D-01  1.3806953161708D+00  8.7680290979887D-02
    57  5.6000000000000D-01  1.3655232951198D+00  1.3046194817250D-01
    58  5.7000000000000D-01  1.3490052633315D+00  1.7324044586692D-01
    59  5.8000000000000D-01  1.3311841474840D+00  2.1590123634372D-01
    60  5.9000000000000D-01  1.3121026942350D+00  2.5834557758577D-01
    61  6.0000000000000D-01  1.2918033051780D+00  3.0049117748688D-01
    62  6.1000000000000D-01  1.2703279202004D+00  3.4227249884310D-01
    63  6.2000000000000D-01  1.2477179505851D+00  3.8364071973207D-01
    64  6.3000000000000D-01  1.2240142622145D+00  4.2456335007190D-01
    65  6.4000000000000D-01  1.1992572082333D+00  4.6502351141161D-01
    66  6.5000000000000D-01  1.1734867095361D+00  5.0501889316215D-01
    67  6.6000000000000D-01  1.1467423804786D+00  5.4456040441815D-01
    68  6.7000000000000D-01  1.1190636962859D+00  5.8367054621474D-01
    69  6.8000000000000D-01  1.0904901977636D+00  6.2238153431285D-01
    70  6.9000000000000D-01  1.0610617281277D+00  6.6073320737421D-01
    71  7.0000000000000D-01  1.0308186960642D+00  6.9877075958286D-01
    72  7.1000000000000D-01  9.9980235852918D-01  7.3654234029822D-01
    73  7.2000000000000D-01  9.6805511631168D-01  7.7409656612293D-01
    74  7.3000000000000D-01  9.3562081501779D-01  8.1147999279354D-01
    75  7.4000000000000D-01  9.0254504389964D-01  8.4873459550107D-01
    76  7.5000000000000D-01  8.6887542485310D-01  8.8589530660200D-01
    77  7.6000000000000D-01  8.3466188394807D-01  9.2298765916613D-01
    78  7.7000000000000D-01  7.9995689803303D-01  9.6002558343883D-01
    79  7.8000000000000D-01  7.6481570927038D-01  9.9700940108079D-01
    80  7.9000000000000D-01  7.2929650090626D-01  1.0339240590245D+00
    81  8.0000000000000D-01  6.9346052815237D-01  1.0707376409962D+00
    82  8.1000000000000D-01  6.5737219874705D-01  1.1074001902586D+00
    83  8.2000000000000D-01  6.2109909856052D-01  1.1438428719948D+00
    84  8.3000000000000D-01  5.8471195849637D-01  1.1799774980934D+00
    85  8.4000000000000D-01  5.4828455991342D-01  1.2156964309390D+00
    86  8.5000000000000D-01  5.1189357682030D-01  1.2508728763421D+00
    87  8.6000000000000D-01  4.7561835417324D-01  1.2853615690080D+00
    88  8.7000000000000D-01  4.3954062271139D-01  1.3189998470831D+00
    89  8.8000000000000D-01  4.0374415187696D-01  1.3516091054478D+00
    90  8.9000000000000D-01  3.6831434347000D-01  1.3829966106585D+00
    91  9.0000000000000D-01  3.3333776976440D-01  1.4129576538829D+00
    92  9.1000000000000D-01  2.9890166083086D-01  1.4412780120109D+00
    93  9.2000000000000D-01  2.6509334678291D-01  1.4677366813044D+00
    94  9.3000000000000D-01  2.3199966153442D-01  1.4921088427835D+00
    95  9.4000000000000D-01  1.9970631544110D-01  1.5141690139606D+00
    96  9.5000000000000D-01  1.6829724486789D-01  1.5336943376921D+00
    97  9.6000000000000D-01  1.3785394727059D-01  1.5504679558731D+00
    98  9.7000000000000D-01  1.0845481079298D-01  1.5642824135053D+00
    99  9.8000000000000D-01  8.0174447652073D-02  1.5749430373732D+00
   100  9.9000000000000D-01  5.3083040710162D-02  1.5822712331830D+00
   101  1.0000000000000D+00  2.7245712598922D-02  1.5861076456476D+00
   102  1.0100000000000D+00  2.7219266008177D-03  1.5863151273867D+00
   103  1.0200000000000D+00 -2.0435071844297D-02  1.5827814650399D+00
   104  1.0300000000000D+00 -4.2178764601909D-02  1.5754218142441D+00
   105  1.0400000000000D+00 -6.2469813472682D-02  1.5641807992565D+00
   106  1.0500000000000D+00 -8.1276448910024D-02  1.5490342378475D+00
   107  1.0600000000000D+00 -9.8574788646287D-02  1.5299904580107D+00
   108  1.0700000000000D+00 -1.1434908086616D-01  1.5070911783757D+00
   109  1.0800000000000D+00 -1.2859186776018D-01  1.4804119319069D+00
   110  1.0900000000000D+00 -1.4130406628480D-01  1.4500620188055D+00
   111  1.1000000000000D+00 -1.5249496416202D-01  1.4161839821815D+00
   112  1.1100000000000D+00 -1.6218213034691D-01  1.3789526075499D+00
   113  1.1200000000000D+00 -1.7039124027587D-01  1.3385734539826D+00
   114  1.1300000000000D+00 -1.7715581760378D-01  1.2952809333501D+00
   115  1.1400000000000D+00 -1.8251689514642D-01  1.2493359602416D+00
   116  1.1500000000000D+00 -1.8652259897789D-01  1.2010232025904D+00
   117  1.1600000000000D+00 -1.8922766047707D-01  1.1506479681177D+00
   118  1.1700000000000D+00 -1.9069286241200D-01  1.0985327693150D+00
   119  1.1800000000000D+00 -1.9098442580942D-01  1.0450136134181D+00
   120  1.1900000000000D+00 -1.9017334512945D-01  9.9043606817878D-01
   121  1.2000000000000D+00 -1.8833467995647D-01  9.3515115806000D-01
   122  1.2100000000000D+00 -1.8554681198011D-01  8.7951114827894D-01
   123  1.2200000000000D+00 -1.8189067626316D-01  8.2386527479378D-01
   124  1.2300000000000D+00 -1.7744897608036D-01  7.6855547986541D-01
   125  1.2400000000000D+00 -1.7230539075398D-01  7.1391221239527D-01
   126  1.2500000000000D+00 -1.6654378557917D-01  6.6025034960201D-01
   127  1.2600000000000D+00 -1.6024743285540D-01  6.0786529533719D-01
   128  1.2700000000000D+00 -1.5349825322384D-01  5.5702931189328D-01
   129  1.2800000000000D+00 -1.4637608128968D-01  5.0798810093002D-01
   130  1.2900000000000D+00 -1.3895798917027D-01  4.6095788343005D-01
   131  1.3000000000000D+00 -1.3131759739979D-01  4.1612240434717D-01
   132  1.3100000000000D+00 -1.2352445475897D-01  3.7363044964829D-01
   133  1.3200000000000D+00 -1.1564387659534D-01  3.3359737717196D-01
   134  1.3300000000000D+00 -1.0773689753012D-01  2.9610705287667D-01
   135  1.3400000000000D+00 -9.9860406966788D-02  2.6121483917755D-01
   136  1.3500000000000D+00 -9.2066957110021D-02  2.2894746017357D-01
   137  1.3600000000000D+00 -8.4404673965836D-02  1.9930358369992D-01
   138  1.3700000000000D+00 -7.6917257815067D-02  1.7225512295966D-01
   139  1.3800000000000D+00 -6.9644032172381D-02  1.4774879682333D-01
   140  1.3900000000000D+00 -6.2620054685481D-02  1.2570810560115D-01
   141  1.4000000000000D+00 -5.5876283147139D-02  1.0603565531971D-01
   142  1.4100000000000D+00 -4.9439791603984D-02  8.8615793492175D-02
   143  1.4200000000000D+00 -4.3334030509961D-02  7.3317509468923D-02
   144  1.4300000000000D+00 -3.7579125053740D-02  5.9997553600151D-02
   145  1.4400000000000D+00 -3.2192203265572D-02  4.8503714183009D-02
   146  1.4500000000000D+00 -2.7187747372770D-02  3.8678202468967D-02
   147  1.4600000000000D+00 -2.2577959503898D-02  3.0361081631192D-02
   148  1.4700000000000D+00 -1.8373134332317D-02  2.3393685596467D-02
   149  1.4800000000000D+00 -1.4582029627015D-02  1.7621962362540D-02
   150  1.4900000000000D+00 -1.1212227920564D-02  1.2899693808600D-02
   151  1.5000000000000D+00 -8.2704797992473D-03  9.0915233055434D-03
   152  1.5100000000000D+00 -5.7641806104900D-03  6.0767524537584D-03
   153  1.5200000000000D+00 -3.6969027299392D-03  3.7477424008426D-03
   154  1.5300000000000D+00 -2.0665680799311D-03  2.0112024113589D-03
   155  1.5400000000000D+00 -9.0335849210683D-04  8.1838018591887D-04
   156  1.5500000000000D+00 -2.2857378502265D-04  1.3178858619824D-04
   157  1.5600000000000D+00  4.3618197749000D-05 -1.3261529938162D-04
   158  1.5700000000000D+00  5.8482843715671D-05 -9.9988251349895D-05
   159  1.5800000000000D+00 -4.5880050123061D-06  7.2658051821219D-06
   160  1.5900000000000D+00 -1.5758027988849D-05  2.3882783997221D-05
   161  1.6000000000000D+00  1.4101113690127D-06 -2.3363542414957D-06
   162  1.6100000000000D+00  2.9210887912607D-06 -4.7471809051161D-06
   163  1.6200000000000D+00 -6.7942843181016D-08  2.0316896613500D-07
   164  1.6300000000000D+00 -1.0381152939718D-07  3.1042682515252D-07
   165  1.6400000000000D+00  0.0000000000000D+00  0.0000000000000D+00
   166  1.6500000000000D+00  0.0000000000000D+00  0.0000000000000D+00
   167  1.6600000000000D+00  0.0000000000000D+00  0.0000000000000D+00
   168  1.6700000000000D+00  0.0000000000000D+00  0.0000000000000D+00
   169  1.6800000000000D+00  0.0000000000000D+00  0.0000000000000D+00
   170  1.6900000000000D+00  0.0000000000000D+00  0.0000000000000D+00
   171  1.7000000000000D+00  0.0000000000000D+00  0.0000000000000D+00
   172  1.7100000000000D+00  0.0000000000000D+00  0.0000000000000D+00
   173  1.7200000000000D+00  0.0000000000000D+00  0.0000000000000D+00
   174  1.7300000000000D+00  0.0000000000000D+00  0.0000000000000D+00
   175  1.7400000000000D+00  0.0000000000000D+00  0.0000000000000D+00
   176  1.7500000000000D+00  0.0000000000000D+00  0.0000000000000D+00
   177  1.7600000000000D+00  0.0000000000000D+00  0.0000000000000D+00
   178  1.7700000000000D+00  0.0000000000000D+00  0.0000000000000D+00
   179  1.7800000000000D+00  0.0000000000000D+00  0.0000000000000D+00
   180  1.7900000000000D+00  0.0000000000000D+00  0.0000000000000D+00
   181  1.8000000000000D+00  0.0000000000000D+00  0.0000000000000D+00
   182  1.8100000000000D+00  0.0000000000000D+00  0.0000000000000D+00
   183  1.8200000000000D+00  0.0000000000000D+00  0.0000000000000D+00
   184  1.8300000000000D+00  0.0000000000000D+00  0.0000000000000D+00
   185  1.8400000000000D+00  0.0000000000000D+00  0.0000000000000D+00
   186  1.8500000000000D+00  0.0000000000000D+00  0.0000000000000D+00
   187  1.8600000000000D+00  0.0000000000000D+00  0.0000000000000D+00
   188  1.8700000000000D+00  0.0000000000000D+00  0.0000000000000D+00
   189  1.8800000000000D+00  0.0000000000000D+00  0.0000000000000D+00
   190  1.8900000000000D+00  0.0000000000000D+00  0.0000000000000D+00
   191  1.9000000000000D+00  0.0000000000000D+00  0.0000000000000D+00
   192  1.9100000000000D+00  0.0000000000000D+00  0.0000000000000D+00
   193  1.9200000000000D+00  0.0000000000000D+00  0.0000000000000D+00
   194  1.9300000000000D+00  0.0000000000000D+00  0.0000000000000D+00
   195  1.9400000000000D+00  0.0000000000000D+00  0.0000000000000D+00
   196  1.9500000000000D+00  0.0000000000000D+00  0.0000000000000D+00
   197  1.9600000000000D+00  0.0000000000000D+00  0.0000000000000D+00
   198  1.9700000000000D+00  0.0000000000000D+00  0.0000000000000D+00
   199  1.9800000000000D+00  0.0000000000000D+00  0.0000000000000D+00
   200  1.9900000000000D+00  0.0000000000000D+00  0.0000000000000D+00
   201  2.0000000000000D+00  0.0000000000000D+00  0.0000000000000D+00
   202  2.0100000000000D+00  0.0000000000000D+00  0.0000000000000D+00
   203  2.0200000000000D+00  0.0000000000000D+00  0.0000000000000D+00
   204  2.0300000000000D+00  0.0000000000000D+00  0.0000000000000D+00
   205  2.0400000000000D+00  0.0000000000000D+00  0.0000000000000D+00
   206  2.0500000000000D+00  0.0000000000000D+00  0.0000000000000D+00
   207  2.0600000000000D+00  0.0000000000000D+00  0.0000000000000D+00
   208  2.0700000000000D+00  0.0000000000000D+00  0.0000000000000D+00
   209  2.0800000000000D+00  0.0000000000000D+00  0.0000000000000D+00
   210  2.0900000000000D+00  0.0000000000000D+00  0.0000000000000D+00
   211  2.1000000000000D+00  0.0000000000000D+00  0.0000000000000D+00
   212  2.1100000000000D+00  0.0000000000000D+00  0.0000000000000D+00
   213  2.1200000000000D+00  0.0000000000000D+00  0.0000000000000D+00
   214  2.1300000000000D+00  0.0000000000000D+00  0.0000000000000D+00
   215  2.1400000000000D+00  0.0000000000000D+00  0.0000000000000D+00
   216  2.1500000000000D+00  0.0000000000000D+00  0.0000000000000D+00
   217  2.1600000000000D+00  0.0000000000000D+00  0.0000000000000D+00
   218  2.1700000000000D+00  0.0000000000000D+00  0.0000000000000D+00
   219  2.1800000000000D+00  0.0000000000000D+00  0.0000000000000D+00
   220  2.1900000000000D+00  0.0000000000000D+00  0.0000000000000D+00
   221  2.2000000000000D+00  0.0000000000000D+00  0.0000000000000D+00
   222  2.2100000000000D+00  0.0000000000000D+00  0.0000000000000D+00
   223  2.2200000000000D+00  0.0000000000000D+00  0.0000000000000D+00
   224  2.2300000000000D+00  0.0000000000000D+00  0.0000000000000D+00
   225  2.2400000000000D+00  0.0000000000000D+00  0.0000000000000D+00
   226  2.2500000000000D+00  0.0000000000000D+00  0.0000000000000D+00
   227  2.2600000000000D+00  0.0000000000000D+00  0.0000000000000D+00
   228  2.2700000000000D+00  0.0000000000000D+00  0.0000000000000D+00
   229  2.2800000000000D+00  0.0000000000000D+00  0.0000000000000D+00
   230  2.2900000000000D+00  0.0000000000000D+00  0.0000000000000D+00
   231  2.3000000000000D+00  0.0000000000000D+00  0.0000000000000D+00
   232  2.3100000000000D+00  0.0000000000000D+00  0.0000000000000D+00
   233  2.3200000000000D+00  0.0000000000000D+00  0.0000000000000D+00
   234  2.3300000000000D+00  0.0000000000000D+00  0.0000000000000D+00
   235  2.3400000000000D+00  0.0000000000000D+00  0.0000000000000D+00
   236  2.3500000000000D+00  0.0000000000000D+00  0.0000000000000D+00
   237  2.3600000000000D+00  0.0000000000000D+00  0.0000000000000D+00
   238  2.3700000000000D+00  0.0000000000000D+00  0.0000000000000D+00
   239  2.3800000000000D+00  0.0000000000000D+00  0.0000000000000D+00
   240  2.3900000000000D+00  0.0000000000000D+00  0.0000000000000D+00
   241  2.4000000000000D+00  0.0000000000000D+00  0.0000000000000D+00
   242  2.4100000000000D+00  0.0000000000000D+00  0.0000000000000D+00
   243  2.4200000000000D+00  0.0000000000000D+00  0.0000000000000D+00
   244  2.4300000000000D+00  0.0000000000000D+00  0.0000000000000D+00
   245  2.4400000000000D+00  0.0000000000000D+00  0.0000000000000D+00
   246  2.4500000000000D+00  0.0000000000000D+00  0.0000000000000D+00
   247  2.4600000000000D+00  0.0000000000000D+00  0.0000000000000D+00
   248  2.4700000000000D+00  0.0000000000000D+00  0.0000000000000D+00
   249  2.4800000000000D+00  0.0000000000000D+00  0.0000000000000D+00
   250  2.4900000000000D+00  0.0000000000000D+00  0.0000000000000D+00
   251  2.5000000000000D+00  0.0000000000000D+00  0.0000000000000D+00
   252  2.5100000000000D+00  0.0000000000000D+00  0.0000000000000D+00
   253  2.5200000000000D+00  0.0000000000000D+00  0.0000000000000D+00
   254  2.5300000000000D+00  0.0000000000000D+00  0.0000000000000D+00
   255  2.5400000000000D+00  0.0000000000000D+00  0.0000000000000D+00
   256  2.5500000000000D+00  0.0000000000000D+00  0.0000000000000D+00
   257  2.5600000000000D+00  0.0000000000000D+00  0.0000000000000D+00
   258  2.5700000000000D+00  0.0000000000000D+00  0.0000000000000D+00
   259  2.5800000000000D+00  0.0000000000000D+00  0.0000000000000D+00
   260  2.5900000000000D+00  0.0000000000000D+00  0.0000000000000D+00
   261  2.6000000000000D+00  0.0000000000000D+00  0.0000000000000D+00
   262  2.6100000000000D+00  0.0000000000000D+00  0.0000000000000D+00
   263  2.6200000000000D+00  0.0000000000000D+00  0.0000000000000D+00
   264  2.6300000000000D+00  0.0000000000000D+00  0.0000000000000D+00
   265  2.6400000000000D+00  0.0000000000000D+00  0.0000000000000D+00
   266  2.6500000000000D+00  0.0000000000000D+00  0.0000000000000D+00
   267  2.6600000000000D+00  0.0000000000000D+00  0.0000000000000D+00
   268  2.6700000000000D+00  0.0000000000000D+00  0.0000000000000D+00
   269  2.6800000000000D+00  0.0000000000000D+00  0.0000000000000D+00
   270  2.6900000000000D+00  0.0000000000000D+00  0.0000000000000D+00
   271  2.7000000000000D+00  0.0000000000000D+00  0.0000000000000D+00
   272  2.7100000000000D+00  0.0000000000000D+00  0.0000000000000D+00
   273  2.7200000000000D+00  0.0000000000000D+00  0.0000000000000D+00
   274  2.7300000000000D+00  0.0000000000000D+00  0.0000000000000D+00
   275  2.7400000000000D+00  0.0000000000000D+00  0.0000000000000D+00
   276  2.7500000000000D+00  0.0000000000000D+00  0.0000000000000D+00
   277  2.7600000000000D+00  0.0000000000000D+00  0.0000000000000D+00
   278  2.7700000000000D+00  0.0000000000000D+00  0.0000000000000D+00
   279  2.7800000000000D+00  0.0000000000000D+00  0.0000000000000D+00
   280  2.7900000000000D+00  0.0000000000000D+00  0.0000000000000D+00
   281  2.8000000000000D+00  0.0000000000000D+00  0.0000000000000D+00
   282  2.8100000000000D+00  0.0000000000000D+00  0.0000000000000D+00
   283  2.8200000000000D+00  0.0000000000000D+00  0.0000000000000D+00
   284  2.8300000000000D+00  0.0000000000000D+00  0.0000000000000D+00
   285  2.8400000000000D+00  0.0000000000000D+00  0.0000000000000D+00
   286  2.8500000000000D+00  0.0000000000000D+00  0.0000000000000D+00
   287  2.8600000000000D+00  0.0000000000000D+00  0.0000000000000D+00
   288  2.8700000000000D+00  0.0000000000000D+00  0.0000000000000D+00
   289  2.8800000000000D+00  0.0000000000000D+00  0.0000000000000D+00
   290  2.8900000000000D+00  0.0000000000000D+00  0.0000000000000D+00
   291  2.9000000000000D+00  0.0000000000000D+00  0.0000000000000D+00
   292  2.9100000000000D+00  0.0000000000000D+00  0.0000000000000D+00
   293  2.9200000000000D+00  0.0000000000000D+00  0.0000000000000D+00
   294  2.9300000000000D+00  0.0000000000000D+00  0.0000000000000D+00
   295  2.9400000000000D+00  0.0000000000000D+00  0.0000000000000D+00
   296  2.9500000000000D+00  0.0000000000000D+00  0.0000000000000D+00
   297  2.9600000000000D+00  0.0000000000000D+00  0.0000000000000D+00
   298  2.9700000000000D+00  0.0000000000000D+00  0.0000000000000D+00
   299  2.9800000000000D+00  0.0000000000000D+00  0.0000000000000D+00
   300  2.9900000000000D+00  0.0000000000000D+00  0.0000000000000D+00
   301  3.0000000000000D+00  0.0000000000000D+00  0.0000000000000D+00
   302  3.0100000000000D+00  0.0000000000000D+00  0.0000000000000D+00
   303  3.0200000000000D+00  0.0000000000000D+00  0.0000000000000D+00
   304  3.0300000000000D+00  0.0000000000000D+00  0.0000000000000D+00
   305  3.0400000000000D+00  0.0000000000000D+00  0.0000000000000D+00
   306  3.0500000000000D+00  0.0000000000000D+00  0.0000000000000D+00
   307  3.0600000000000D+00  0.0000000000000D+00  0.0000000000000D+00
   308  3.0700000000000D+00  0.0000000000000D+00  0.0000000000000D+00
   309  3.0800000000000D+00  0.0000000000000D+00  0.0000000000000D+00
   310  3.0900000000000D+00  0.0000000000000D+00  0.0000000000000D+00
   311  3.1000000000000D+00  0.0000000000000D+00  0.0000000000000D+00
   312  3.1100000000000D+00  0.0000000000000D+00  0.0000000000000D+00
   313  3.1200000000000D+00  0.0000000000000D+00  0.0000000000000D+00
   314  3.1300000000000D+00  0.0000000000000D+00  0.0000000000000D+00
   315  3.1400000000000D+00  0.0000000000000D+00  0.0000000000000D+00
   316  3.1500000000000D+00  0.0000000000000D+00  0.0000000000000D+00
   317  3.1600000000000D+00  0.0000000000000D+00  0.0000000000000D+00
   318  3.1700000000000D+00  0.0000000000000D+00  0.0000000000000D+00
   319  3.1800000000000D+00  0.0000000000000D+00  0.0000000000000D+00
   320  3.1900000000000D+00  0.0000000000000D+00  0.0000000000000D+00
   321  3.2000000000000D+00  0.0000000000000D+00  0.0000000000000D+00
   322  3.2100000000000D+00  0.0000000000000D+00  0.0000000000000D+00
   323  3.2200000000000D+00  0.0000000000000D+00  0.0000000000000D+00
   324  3.2300000000000D+00  0.0000000000000D+00  0.0000000000000D+00
   325  3.2400000000000D+00  0.0000000000000D+00  0.0000000000000D+00
   326  3.2500000000000D+00  0.0000000000000D+00  0.0000000000000D+00
   327  3.2600000000000D+00  0.0000000000000D+00  0.0000000000000D+00
   328  3.2700000000000D+00  0.0000000000000D+00  0.0000000000000D+00
   329  3.2800000000000D+00  0.0000000000000D+00  0.0000000000000D+00
   330  3.2900000000000D+00  0.0000000000000D+00  0.0000000000000D+00
   331  3.3000000000000D+00  0.0000000000000D+00  0.0000000000000D+00
   332  3.3100000000000D+00  0.0000000000000D+00  0.0000000000000D+00
   333  3.3200000000000D+00  0.0000000000000D+00  0.0000000000000D+00
   334  3.3300000000000D+00  0.0000000000000D+00  0.0000000000000D+00
   335  3.3400000000000D+00  0.0000000000000D+00  0.0000000000000D+00
   336  3.3500000000000D+00  0.0000000000000D+00  0.0000000000000D+00
   337  3.3600000000000D+00  0.0000000000000D+00  0.0000000000000D+00
   338  3.3700000000000D+00  0.0000000000000D+00  0.0000000000000D+00
   339  3.3800000000000D+00  0.0000000000000D+00  0.0000000000000D+00
   340  3.3900000000000D+00  0.0000000000000D+00  0.0000000000000D+00
   341  3.4000000000000D+00  0.0000000000000D+00  0.0000000000000D+00
   342  3.4100000000000D+00  0.0000000000000D+00  0.0000000000000D+00
   343  3.4200000000000D+00  0.0000000000000D+00  0.0000000000000D+00
   344  3.4300000000000D+00  0.0000000000000D+00  0.0000000000000D+00
   345  3.4400000000000D+00  0.0000000000000D+00  0.0000000000000D+00
   346  3.4500000000000D+00  0.0000000000000D+00  0.0000000000000D+00
   347  3.4600000000000D+00  0.0000000000000D+00  0.0000000000000D+00
   348  3.4700000000000D+00  0.0000000000000D+00  0.0000000000000D+00
   349  3.4800000000000D+00  0.0000000000000D+00  0.0000000000000D+00
   350  3.4900000000000D+00  0.0000000000000D+00  0.0000000000000D+00
   351  3.5000000000000D+00  0.0000000000000D+00  0.0000000000000D+00
   352  3.5100000000000D+00  0.0000000000000D+00  0.0000000000000D+00
   353  3.5200000000000D+00  0.0000000000000D+00  0.0000000000000D+00
   354  3.5300000000000D+00  0.0000000000000D+00  0.0000000000000D+00
   355  3.5400000000000D+00  0.0000000000000D+00  0.0000000000000D+00
   356  3.5500000000000D+00  0.0000000000000D+00  0.0000000000000D+00
   357  3.5600000000000D+00  0.0000000000000D+00  0.0000000000000D+00
   358  3.5700000000000D+00  0.0000000000000D+00  0.0000000000000D+00
   359  3.5800000000000D+00  0.0000000000000D+00  0.0000000000000D+00
   360  3.5900000000000D+00  0.0000000000000D+00  0.0000000000000D+00
   361  3.6000000000000D+00  0.0000000000000D+00  0.0000000000000D+00
   362  3.6100000000000D+00  0.0000000000000D+00  0.0000000000000D+00
   363  3.6200000000000D+00  0.0000000000000D+00  0.0000000000000D+00
   364  3.6300000000000D+00  0.0000000000000D+00  0.0000000000000D+00
   365  3.6400000000000D+00  0.0000000000000D+00  0.0000000000000D+00
   366  3.6500000000000D+00  0.0000000000000D+00  0.0000000000000D+00
   367  3.6600000000000D+00  0.0000000000000D+00  0.0000000000000D+00
   368  3.6700000000000D+00  0.0000000000000D+00  0.0000000000000D+00
   369  3.6800000000000D+00  0.0000000000000D+00  0.0000000000000D+00
   370  3.6900000000000D+00  0.0000000000000D+00  0.0000000000000D+00
   371  3.7000000000000D+00  0.0000000000000D+00  0.0000000000000D+00
   372  3.7100000000000D+00  0.0000000000000D+00  0.0000000000000D+00
   373  3.7200000000000D+00  0.0000000000000D+00  0.0000000000000D+00
   374  3.7300000000000D+00  0.0000000000000D+00  0.0000000000000D+00
   375  3.7400000000000D+00  0.0000000000000D+00  0.0000000000000D+00
   376  3.7500000000000D+00  0.0000000000000D+00  0.0000000000000D+00
   377  3.7600000000000D+00  0.0000000000000D+00  0.0000000000000D+00
   378  3.7700000000000D+00  0.0000000000000D+00  0.0000000000000D+00
   379  3.7800000000000D+00  0.0000000000000D+00  0.0000000000000D+00
   380  3.7900000000000D+00  0.0000000000000D+00  0.0000000000000D+00
   381  3.8000000000000D+00  0.0000000000000D+00  0.0000000000000D+00
   382  3.8100000000000D+00  0.0000000000000D+00  0.0000000000000D+00
   383  3.8200000000000D+00  0.0000000000000D+00  0.0000000000000D+00
   384  3.8300000000000D+00  0.0000000000000D+00  0.0000000000000D+00
   385  3.8400000000000D+00  0.0000000000000D+00  0.0000000000000D+00
   386  3.8500000000000D+00  0.0000000000000D+00  0.0000000000000D+00
   387  3.8600000000000D+00  0.0000000000000D+00  0.0000000000000D+00
   388  3.8700000000000D+00  0.0000000000000D+00  0.0000000000000D+00
   389  3.8800000000000D+00  0.0000000000000D+00  0.0000000000000D+00
   390  3.8900000000000D+00  0.0000000000000D+00  0.0000000000000D+00
   391  3.9000000000000D+00  0.0000000000000D+00  0.0000000000000D+00
   392  3.9100000000000D+00  0.0000000000000D+00  0.0000000000000D+00
   393  3.9200000000000D+00  0.0000000000000D+00  0.0000000000000D+00
   394  3.9300000000000D+00  0.0000000000000D+00  0.0000000000000D+00
   395  3.9400000000000D+00  0.0000000000000D+00  0.0000000000000D+00
   396  3.9500000000000D+00  0.0000000000000D+00  0.0000000000000D+00
   397  3.9600000000000D+00  0.0000000000000D+00  0.0000000000000D+00
   398  3.9700000000000D+00  0.0000000000000D+00  0.0000000000000D+00
   399  3.9800000000000D+00  0.0000000000000D+00  0.0000000000000D+00
   400  3.9900000000000D+00  0.0000000000000D+00  0.0000000000000D+00
   401  4.0000000000000D+00  0.0000000000000D+00  0.0000000000000D+00
   402  4.0100000000000D+00  0.0000000000000D+00  0.0000000000000D+00
   403  4.0200000000000D+00  0.0000000000000D+00  0.0000000000000D+00
   404  4.0300000000000D+00  0.0000000000000D+00  0.0000000000000D+00
   405  4.0400000000000D+00  0.0000000000000D+00  0.0000000000000D+00
   406  4.0500000000000D+00  0.0000000000000D+00  0.0000000000000D+00
   407  4.0600000000000D+00  0.0000000000000D+00  0.0000000000000D+00
   408  4.0700000000000D+00  0.0000000000000D+00  0.0000000000000D+00
   409  4.0800000000000D+00  0.0000000000000D+00  0.0000000000000D+00
   410  4.0900000000000D+00  0.0000000000000D+00  0.0000000000000D+00
   411  4.1000000000000D+00  0.0000000000000D+00  0.0000000000000D+00
   412  4.1100000000000D+00  0.0000000000000D+00  0.0000000000000D+00
   413  4.1200000000000D+00  0.0000000000000D+00  0.0000000000000D+00
   414  4.1300000000000D+00  0.0000000000000D+00  0.0000000000000D+00
   415  4.1400000000000D+00  0.0000000000000D+00  0.0000000000000D+00
   416  4.1500000000000D+00  0.0000000000000D+00  0.0000000000000D+00
   417  4.1600000000000D+00  0.0000000000000D+00  0.0000000000000D+00
   418  4.1700000000000D+00  0.0000000000000D+00  0.0000000000000D+00
   419  4.1800000000000D+00  0.0000000000000D+00  0.0000000000000D+00
   420  4.1900000000000D+00  0.0000000000000D+00  0.0000000000000D+00
   421  4.2000000000000D+00  0.0000000000000D+00  0.0000000000000D+00
   422  4.2100000000000D+00  0.0000000000000D+00  0.0000000000000D+00