Dy    ONCVPSP-3.3.0  r_core=   1.80633   1.51039   1.66163   1.70175
     66.0000     20.0000      220117    zatom,zion,pspd
     8      11   3     4   600     0    pspcod,pspxc,lmax,lloc,mmax,r2well
  5.99000000  0.00000000  0.00000000    rchrg fchrg qchrg
     2     2     2     2     0    nproj
     1     1           extension_switch
   0                         8.7662908191964D+00  6.0889551373227D-01
     1  0.0000000000000D+00 -5.9670823837621D-11  3.8666297941248D-10
     2  1.0000000000000D-02  4.9495453818367D-02 -2.5049688954861D-02
     3  2.0000000000000D-02  9.8922952949883D-02 -4.9944725676234D-02
     4  3.0000000000000D-02  1.4821474269543D-01 -7.4531643264188D-02
     5  4.0000000000000D-02  1.9730346680604D-01 -9.8659334671036D-02
     6  5.0000000000000D-02  2.4612236290987D-01 -1.2218020568908D-01
     7  6.0000000000000D-02  2.9460545342417D-01 -1.4495129588792D-01
     8  7.0000000000000D-02  3.4268773051777D-01 -1.6683535727493D-01
     9  8.0000000000000D-02  3.9030533374928D-01 -1.8770188083895D-01
    10  9.0000000000000D-02  4.3739571907996D-01 -2.0742806161459D-01
    11  1.0000000000000D-01  4.8389781804657D-01 -2.2589969346797D-01
    12  1.1000000000000D-01  5.2975218597899D-01 -2.4301198544987D-01
    13  1.2000000000000D-01  5.7490113825752D-01 -2.5867029228319D-01
    14  1.3000000000000D-01  6.1928887372606D-01 -2.7279075234304D-01
    15  1.4000000000000D-01  6.6286158450716D-01 -2.8530082734100D-01
    16  1.5000000000000D-01  7.0556755160332D-01 -2.9613973883541D-01
    17  1.6000000000000D-01  7.4735722581357D-01 -3.0525879764585D-01
    18  1.7000000000000D-01  7.8818329364437D-01 -3.1262162324723D-01
    19  1.8000000000000D-01  8.2800072804788D-01 -3.1820425124481D-01
    20  1.9000000000000D-01  8.6676682397657D-01 -3.2199512808057D-01
    21  2.0000000000000D-01  9.0444121890007D-01 -3.2399499318083D-01
    22  2.1000000000000D-01  9.4098589858602D-01 -3.2421664981782D-01
    23  2.2000000000000D-01  9.7636518860040D-01 -3.2268462701336D-01
    24  2.3000000000000D-01  1.0105457321319D+00 -3.1943473585088D-01
    25  2.4000000000000D-01  1.0434964548892D+00 -3.1451352457416D-01
    26  2.5000000000000D-01  1.0751885179564D+00 -3.0797763782685D-01
    27  2.6000000000000D-01  1.1055952596200D+00 -2.9989308631721D-01
    28  2.7000000000000D-01  1.1346921272990D+00 -2.9033443406920D-01
    29  2.8000000000000D-01  1.1624566008160D+00 -2.7938391123377D-01
    30  2.9000000000000D-01  1.1888681083412D+00 -2.6713046117768D-01
    31  3.0000000000000D-01  1.2139079364216D+00 -2.5366873122991D-01
    32  3.1000000000000D-01  1.2375591355721D+00 -2.3909801704567D-01
    33  3.2000000000000D-01  1.2598064229561D+00 -2.2352117103369D-01
    34  3.3000000000000D-01  1.2806360837132D+00 -2.0704348568275D-01
    35  3.4000000000000D-01  1.3000358725116D+00 -1.8977156291115D-01
    36  3.5000000000000D-01  1.3179949168958D+00 -1.7181218074462D-01
    37  3.6000000000000D-01  1.3345036239848D+00 -1.5327116870247D-01
    38  3.7000000000000D-01  1.3495535920347D+00 -1.3425230323423D-01
    39  3.8000000000000D-01  1.3631375283255D+00 -1.1485623440157D-01
    40  3.9000000000000D-01  1.3752491747575D+00 -9.5179454741107D-02
    41  4.0000000000000D-01  1.3858832424520D+00 -7.5313320874388D-02
    42  4.1000000000000D-01  1.3950353565434D+00 -5.5343137955339D-02
    43  4.2000000000000D-01  1.4027020122254D+00 -3.5347316464416D-02
    44  4.3000000000000D-01  1.4088805429785D+00 -1.5396610178338D-02
    45  4.4000000000000D-01  1.4135691017498D+00  4.4465566300125D-03
    46  4.5000000000000D-01  1.4167666556964D+00  2.4128665569684D-02
    47  4.6000000000000D-01  1.4184729949265D+00  4.3605577837892D-02
    48  4.7000000000000D-01  1.4186887554875D+00  6.2842900019361D-02
    49  4.8000000000000D-01  1.4174154566632D+00  8.1816237819770D-02
    50  4.9000000000000D-01  1.4146555524408D+00  1.0051133470393D-01
    51  5.0000000000000D-01  1.4104124968133D+00  1.1892409357970D-01
    52  5.1000000000000D-01  1.4046908223799D+00  1.3706048086910D-01
    53  5.2000000000000D-01  1.3974962315087D+00  1.5493631352723D-01
    54  5.3000000000000D-01  1.3888356991299D+00  1.7257693079446D-01
    55  5.4000000000000D-01  1.3787175860388D+00  1.9001675368380D-01
    56  5.5000000000000D-01  1.3671517614048D+00  2.0729873640460D-01
    57  5.6000000000000D-01  1.3541497330123D+00  2.2447371508805D-01
    58  5.7000000000000D-01  1.3397247836014D+00  2.4159966029945D-01
    59  5.8000000000000D-01  1.3238921115317D+00  2.5874084088418D-01
    60  5.9000000000000D-01  1.3066689738673D+00  2.7596690768469D-01
    61  6.0000000000000D-01  1.2880748298733D+00  2.9335190657556D-01
    62  6.1000000000000D-01  1.2681314828263D+00  3.1097323107903D-01
    63  6.2000000000000D-01  1.2468632179803D+00  3.2891052553578D-01
    64  6.3000000000000D-01  1.2242969344866D+00  3.4724455040626D-01
    65  6.4000000000000D-01  1.2004622690510D+00  3.6605602175518D-01
    66  6.5000000000000D-01  1.1753917091273D+00  3.8542443732321D-01
    67  6.6000000000000D-01  1.1491206934763D+00  4.0542690180622D-01
    68  6.7000000000000D-01  1.1216876979929D+00  4.2613696404008D-01
    69  6.8000000000000D-01  1.0931343047893D+00  4.4762347872611D-01
    70  6.9000000000000D-01  1.0635052526465D+00  4.6994950512588D-01
    71  7.0000000000000D-01  1.0328484670907D+00  4.9317125480544D-01
    72  7.1000000000000D-01  1.0012150685209D+00  5.1733710002188D-01
    73  7.2000000000000D-01  9.6865935701442D-01  5.4248665371633D-01
    74  7.3000000000000D-01  9.3523877265230D-01  5.6864993132297D-01
    75  7.4000000000000D-01  9.0101383044808D-01  5.9584660372051D-01
    76  7.5000000000000D-01  8.6604802922268D-01  6.2408534965593D-01
    77  7.6000000000000D-01  8.3040773404210D-01  6.5336331486987D-01
    78  7.7000000000000D-01  7.9416203212456D-01  6.8366568395358D-01
    79  7.8000000000000D-01  7.5738256242176D-01  7.1496536969571D-01
    80  7.9000000000000D-01  7.2014331938557D-01  7.4722282333521D-01
    81  8.0000000000000D-01  6.8252043174082D-01  7.8038596774780D-01
    82  8.1000000000000D-01  6.4459191739441D-01  8.1439025417153D-01
    83  8.2000000000000D-01  6.0643741591645D-01  8.4915884164221D-01
    84  8.3000000000000D-01  5.6813790032611D-01  8.8460289687691D-01
    85  8.4000000000000D-01  5.2977537020061D-01  9.2062201093739D-01
    86  8.5000000000000D-01  4.9143252839438D-01  9.5710472763868D-01
    87  8.6000000000000D-01  4.5319244390501D-01  9.9392917736538D-01
    88  8.7000000000000D-01  4.1513820364694D-01  1.0309638087357D+00
    89  8.8000000000000D-01  3.7735255609151D-01  1.0680682094295D+00
    90  8.9000000000000D-01  3.3991754989743D-01  1.1050940064908D+00
    91  9.0000000000000D-01  3.0291417078668D-01  1.1418858355423D+00
    92  9.1000000000000D-01  2.6642198001427D-01  1.1782823676257D+00
    93  9.2000000000000D-01  2.3051875783263D-01  1.2141173818215D+00
    94  9.3000000000000D-01  1.9528015536184D-01  1.2492208714149D+00
    95  9.4000000000000D-01  1.6077935824179D-01  1.2834201711738D+00
    96  9.5000000000000D-01  1.2708676536235D-01  1.3165410932950D+00
    97  9.6000000000000D-01  9.4269685839927D-02  1.3484090597649D+00
    98  9.7000000000000D-01  6.2392057236064D-02  1.3788502192654D+00
    99  9.8000000000000D-01  3.1514187787029D-02  1.4076925373621D+00
   100  9.9000000000000D-01  1.6925251599424D-03  1.4347668494583D+00
   101  1.0000000000000D+00 -2.7020546073905D-02  1.4599078670199D+00
   102  1.0100000000000D+00 -5.4576876400335D-02  1.4829551287024D+00
   103  1.0200000000000D+00 -8.0932691303088D-02  1.5037538893483D+00
   104  1.0300000000000D+00 -1.0604869815228D-01  1.5221559412918D+00
   105  1.0400000000000D+00 -1.2989015947306D-01  1.5380203640512D+00
   106  1.0500000000000D+00 -1.5242693249428D-01  1.5512142001635D+00
   107  1.0600000000000D+00 -1.7363347538139D-01  1.5616130567351D+00
   108  1.0700000000000D+00 -1.9348882108759D-01  1.5691016342063D+00
   109  1.0800000000000D+00 -2.1197652025834D-01  1.5735741856510D+00
   110  1.0900000000000D+00 -2.2908455517032D-01  1.5749349119117D+00
   111  1.1000000000000D+00 -2.4480522716541D-01  1.5730982995988D+00
   112  1.1100000000000D+00 -2.5913502055671D-01  1.5679894108347D+00
   113  1.1200000000000D+00 -2.7207444646716D-01  1.5595441353183D+00
   114  1.1300000000000D+00 -2.8362787047906D-01  1.5477094167122D+00
   115  1.1400000000000D+00 -2.9380332836911D-01  1.5324434666484D+00
   116  1.1500000000000D+00 -3.0261233452484D-01  1.5137159806715D+00
   117  1.1600000000000D+00 -3.1006968797049D-01  1.4915083713485D+00
   118  1.1700000000000D+00 -3.1619328107839D-01  1.4658140339952D+00
   119  1.1800000000000D+00 -3.2100391616188D-01  1.4366386605219D+00
   120  1.1900000000000D+00 -3.2452513522466D-01  1.4040006167499D+00
   121  1.2000000000000D+00 -3.2678306804077D-01  1.3679313975088D+00
   122  1.2100000000000D+00 -3.2780630342794D-01  1.3284761718467D+00
   123  1.2200000000000D+00 -3.2762578854853D-01  1.2856944302882D+00
   124  1.2300000000000D+00 -3.2627476037414D-01  1.2396607419955D+00
   125  1.2400000000000D+00 -3.2378871279666D-01  1.1904656263049D+00
   126  1.2500000000000D+00 -3.2020540247428D-01  1.1382165409249D+00
   127  1.2600000000000D+00 -3.1556489540914D-01  1.0830389833388D+00
   128  1.2700000000000D+00 -3.0990965476725D-01  1.0250776945225D+00
   129  1.2800000000000D+00 -3.0328466992938D-01  9.6449795144380D-01
   130  1.2900000000000D+00 -2.9573762513091D-01  9.0148692658316D-01
   131  1.3000000000000D+00 -2.8731910330263D-01  8.3625507929707D-01
   132  1.3100000000000D+00 -2.7808282067803D-01  7.6903754359138D-01
   133  1.3200000000000D+00 -2.6808588479473D-01  7.0009546243667D-01
   134  1.3300000000000D+00 -2.5738906434866D-01  6.2971719864019D-01
   135  1.3400000000000D+00 -2.4605706109233D-01  5.5821936061275D-01
   136  1.3500000000000D+00 -2.3415876721805D-01  4.8594754870230D-01
   137  1.3600000000000D+00 -2.2176748799390D-01  4.1327671015983D-01
   138  1.3700000000000D+00 -2.0896111292143D-01  3.4061100758144D-01
   139  1.3800000000000D+00 -1.9582220443193D-01  2.6838303710096D-01
   140  1.3900000000000D+00 -1.8243797732841D-01  1.9705225277053D-01
   141  1.4000000000000D+00 -1.6890013782772D-01  1.2710243264610D-01
   142  1.4100000000000D+00 -1.5530453532562D-01  5.9037946362046D-02
   143  1.4200000000000D+00 -1.4175059523149D-01 -6.6213427092870D-03
   144  1.4300000000000D+00 -1.2834047349024D-01 -6.9346841108755D-02
   145  1.4400000000000D+00 -1.1517788152450D-01 -1.2860991622115D-01
   146  1.4500000000000D+00 -1.0236652748648D-01 -1.8389278935426D-01
   147  1.4600000000000D+00 -9.0008073761515D-02 -2.3470215163826D-01
   148  1.4700000000000D+00 -7.8199632257907D-02 -2.8058529236868D-01
   149  1.4800000000000D+00 -6.7030387119044D-02 -3.2115121210086D-01
   150  1.4900000000000D+00 -5.6578456277389D-02 -3.5608958549971D-01
   151  1.5000000000000D+00 -4.6905855810942D-02 -3.8520067340699D-01
   152  1.5100000000000D+00 -3.8049519771210D-02 -4.0845072769113D-01
   153  1.5200000000000D+00 -3.0023098790652D-02 -4.2595452100928D-01
   154  1.5300000000000D+00 -2.2820129625144D-02 -4.3794760089637D-01
   155  1.5400000000000D+00 -1.6422159086491D-02 -4.4473154666958D-01
   156  1.5500000000000D+00 -1.0807585376494D-02 -4.4661442143143D-01
   157  1.5600000000000D+00 -5.9490235956686D-03 -4.4392885256572D-01
   158  1.5700000000000D+00 -1.8134399792652D-03 -4.3703209981183D-01
   159  1.5800000000000D+00  1.6366238052549D-03 -4.2629817964271D-01
   160  1.5900000000000D+00  4.4428002698499D-03 -4.1211693443643D-01
   161  1.6000000000000D+00  6.6502199643736D-03 -3.9489022321668D-01
   162  1.6100000000000D+00  8.3069445567308D-03 -3.7502890010326D-01
   163  1.6200000000000D+00  9.4633605069042D-03 -3.5294956374553D-01
   164  1.6300000000000D+00  1.0171557326107D-02 -3.2907123497993D-01
   165  1.6400000000000D+00  1.0484697400704D-02 -3.0381200010783D-01
   166  1.6500000000000D+00  1.0456387803645D-02 -2.7758567825921D-01
   167  1.6600000000000D+00  1.0140056414113D-02 -2.5079852175752D-01
   168  1.6700000000000D+00  9.5883361892465D-03 -2.2384596637917D-01
   169  1.6800000000000D+00  8.8524632261822D-03 -1.9710946212474D-01
   170  1.6900000000000D+00  7.9816961037889D-03 -1.7095342310829D-01
   171  1.7000000000000D+00  7.0227583677759D-03 -1.4572230535255D-01
   172  1.7100000000000D+00  6.0193120442646D-03 -1.2173785262341D-01
   173  1.7200000000000D+00  5.0114630368237D-03 -9.9296514693299D-02
   174  1.7300000000000D+00  4.0353068660984D-03 -7.8667081051432D-02
   175  1.7400000000000D+00  3.1225138834902D-03 -6.0088525553677D-02
   176  1.7500000000000D+00  2.3006010988983D-03 -4.3779949873807D-02
   177  1.7600000000000D+00  1.5898795089334D-03 -2.9888250617294D-02
   178  1.7700000000000D+00  1.0031926547178D-03 -1.8496143952640D-02
   179  1.7800000000000D+00  5.6001238397029D-04 -9.8491020395714D-03
   180  1.7900000000000D+00  2.7757842808414D-04 -4.1912909858338D-03
   181  1.8000000000000D+00  1.3162778622567D-04 -1.2108438407603D-03
   182  1.8100000000000D+00  6.0256644520287D-05 -5.9170478743470D-05
   183  1.8200000000000D+00  1.8328650547056D-05  1.2095935739479D-04
   184  1.8300000000000D+00 -1.8041604641835D-06 -2.0918093143958D-05
   185  1.8400000000000D+00 -3.6107435387463D-06 -6.1415194920942D-05
   186  1.8500000000000D+00  1.1548434337254D-08  8.6879135805850D-08
   187  1.8600000000000D+00  1.0954293618126D-06  9.9191700562513D-06
   188  1.8700000000000D+00  2.8082504815366D-07  2.9105738163087D-06
   189  1.8800000000000D+00 -2.1891745389427D-07  8.8093828425954D-07
   190  1.8900000000000D+00 -1.3423343048085D-07  5.4016418441984D-07
   191  1.9000000000000D+00  0.0000000000000D+00  0.0000000000000D+00
   192  1.9100000000000D+00  0.0000000000000D+00  0.0000000000000D+00
   193  1.9200000000000D+00  0.0000000000000D+00  0.0000000000000D+00
   194  1.9300000000000D+00  0.0000000000000D+00  0.0000000000000D+00
   195  1.9400000000000D+00  0.0000000000000D+00  0.0000000000000D+00
   196  1.9500000000000D+00  0.0000000000000D+00  0.0000000000000D+00
   197  1.9600000000000D+00  0.0000000000000D+00  0.0000000000000D+00
   198  1.9700000000000D+00  0.0000000000000D+00  0.0000000000000D+00
   199  1.9800000000000D+00  0.0000000000000D+00  0.0000000000000D+00
   200  1.9900000000000D+00  0.0000000000000D+00  0.0000000000000D+00
   201  2.0000000000000D+00  0.0000000000000D+00  0.0000000000000D+00
   202  2.0100000000000D+00  0.0000000000000D+00  0.0000000000000D+00
   203  2.0200000000000D+00  0.0000000000000D+00  0.0000000000000D+00
   204  2.0300000000000D+00  0.0000000000000D+00  0.0000000000000D+00
   205  2.0400000000000D+00  0.0000000000000D+00  0.0000000000000D+00
   206  2.0500000000000D+00  0.0000000000000D+00  0.0000000000000D+00
   207  2.0600000000000D+00  0.0000000000000D+00  0.0000000000000D+00
   208  2.0700000000000D+00  0.0000000000000D+00  0.0000000000000D+00
   209  2.0800000000000D+00  0.0000000000000D+00  0.0000000000000D+00
   210  2.0900000000000D+00  0.0000000000000D+00  0.0000000000000D+00
   211  2.1000000000000D+00  0.0000000000000D+00  0.0000000000000D+00
   212  2.1100000000000D+00  0.0000000000000D+00  0.0000000000000D+00
   213  2.1200000000000D+00  0.0000000000000D+00  0.0000000000000D+00
   214  2.1300000000000D+00  0.0000000000000D+00  0.0000000000000D+00
   215  2.1400000000000D+00  0.0000000000000D+00  0.0000000000000D+00
   216  2.1500000000000D+00  0.0000000000000D+00  0.0000000000000D+00
   217  2.1600000000000D+00  0.0000000000000D+00  0.0000000000000D+00
   218  2.1700000000000D+00  0.0000000000000D+00  0.0000000000000D+00
   219  2.1800000000000D+00  0.0000000000000D+00  0.0000000000000D+00
   220  2.1900000000000D+00  0.0000000000000D+00  0.0000000000000D+00
   221  2.2000000000000D+00  0.0000000000000D+00  0.0000000000000D+00
   222  2.2100000000000D+00  0.0000000000000D+00  0.0000000000000D+00
   223  2.2200000000000D+00  0.0000000000000D+00  0.0000000000000D+00
   224  2.2300000000000D+00  0.0000000000000D+00  0.0000000000000D+00
   225  2.2400000000000D+00  0.0000000000000D+00  0.0000000000000D+00
   226  2.2500000000000D+00  0.0000000000000D+00  0.0000000000000D+00
   227  2.2600000000000D+00  0.0000000000000D+00  0.0000000000000D+00
   228  2.2700000000000D+00  0.0000000000000D+00  0.0000000000000D+00
   229  2.2800000000000D+00  0.0000000000000D+00  0.0000000000000D+00
   230  2.2900000000000D+00  0.0000000000000D+00  0.0000000000000D+00
   231  2.3000000000000D+00  0.0000000000000D+00  0.0000000000000D+00
   232  2.3100000000000D+00  0.0000000000000D+00  0.0000000000000D+00
   233  2.3200000000000D+00  0.0000000000000D+00  0.0000000000000D+00
   234  2.3300000000000D+00  0.0000000000000D+00  0.0000000000000D+00
   235  2.3400000000000D+00  0.0000000000000D+00  0.0000000000000D+00
   236  2.3500000000000D+00  0.0000000000000D+00  0.0000000000000D+00
   237  2.3600000000000D+00  0.0000000000000D+00  0.0000000000000D+00
   238  2.3700000000000D+00  0.0000000000000D+00  0.0000000000000D+00
   239  2.3800000000000D+00  0.0000000000000D+00  0.0000000000000D+00
   240  2.3900000000000D+00  0.0000000000000D+00  0.0000000000000D+00
   241  2.4000000000000D+00  0.0000000000000D+00  0.0000000000000D+00
   242  2.4100000000000D+00  0.0000000000000D+00  0.0000000000000D+00
   243  2.4200000000000D+00  0.0000000000000D+00  0.0000000000000D+00
   244  2.4300000000000D+00  0.0000000000000D+00  0.0000000000000D+00
   245  2.4400000000000D+00  0.0000000000000D+00  0.0000000000000D+00
   246  2.4500000000000D+00  0.0000000000000D+00  0.0000000000000D+00
   247  2.4600000000000D+00  0.0000000000000D+00  0.0000000000000D+00
   248  2.4700000000000D+00  0.0000000000000D+00  0.0000000000000D+00
   249  2.4800000000000D+00  0.0000000000000D+00  0.0000000000000D+00
   250  2.4900000000000D+00  0.0000000000000D+00  0.0000000000000D+00
   251  2.5000000000000D+00  0.0000000000000D+00  0.0000000000000D+00
   252  2.5100000000000D+00  0.0000000000000D+00  0.0000000000000D+00
   253  2.5200000000000D+00  0.0000000000000D+00  0.0000000000000D+00
   254  2.5300000000000D+00  0.0000000000000D+00  0.0000000000000D+00
   255  2.5400000000000D+00  0.0000000000000D+00  0.0000000000000D+00
   256  2.5500000000000D+00  0.0000000000000D+00  0.0000000000000D+00
   257  2.5600000000000D+00  0.0000000000000D+00  0.0000000000000D+00
   258  2.5700000000000D+00  0.0000000000000D+00  0.0000000000000D+00
   259  2.5800000000000D+00  0.0000000000000D+00  0.0000000000000D+00
   260  2.5900000000000D+00  0.0000000000000D+00  0.0000000000000D+00
   261  2.6000000000000D+00  0.0000000000000D+00  0.0000000000000D+00
   262  2.6100000000000D+00  0.0000000000000D+00  0.0000000000000D+00
   263  2.6200000000000D+00  0.0000000000000D+00  0.0000000000000D+00
   264  2.6300000000000D+00  0.0000000000000D+00  0.0000000000000D+00
   265  2.6400000000000D+00  0.0000000000000D+00  0.0000000000000D+00
   266  2.6500000000000D+00  0.0000000000000D+00  0.0000000000000D+00
   267  2.6600000000000D+00  0.0000000000000D+00  0.0000000000000D+00
   268  2.6700000000000D+00  0.0000000000000D+00  0.0000000000000D+00
   269  2.6800000000000D+00  0.0000000000000D+00  0.0000000000000D+00
   270  2.6900000000000D+00  0.0000000000000D+00  0.0000000000000D+00
   271  2.7000000000000D+00  0.0000000000000D+00  0.0000000000000D+00
   272  2.7100000000000D+00  0.0000000000000D+00  0.0000000000000D+00
   273  2.7200000000000D+00  0.0000000000000D+00  0.0000000000000D+00
   274  2.7300000000000D+00  0.0000000000000D+00  0.0000000000000D+00
   275  2.7400000000000D+00  0.0000000000000D+00  0.0000000000000D+00
   276  2.7500000000000D+00  0.0000000000000D+00  0.0000000000000D+00
   277  2.7600000000000D+00  0.0000000000000D+00  0.0000000000000D+00
   278  2.7700000000000D+00  0.0000000000000D+00  0.0000000000000D+00
   279  2.7800000000000D+00  0.0000000000000D+00  0.0000000000000D+00
   280  2.7900000000000D+00  0.0000000000000D+00  0.0000000000000D+00
   281  2.8000000000000D+00  0.0000000000000D+00  0.0000000000000D+00
   282  2.8100000000000D+00  0.0000000000000D+00  0.0000000000000D+00
   283  2.8200000000000D+00  0.0000000000000D+00  0.0000000000000D+00
   284  2.8300000000000D+00  0.0000000000000D+00  0.0000000000000D+00
   285  2.8400000000000D+00  0.0000000000000D+00  0.0000000000000D+00
   286  2.8500000000000D+00  0.0000000000000D+00  0.0000000000000D+00
   287  2.8600000000000D+00  0.0000000000000D+00  0.0000000000000D+00
   288  2.8700000000000D+00  0.0000000000000D+00  0.0000000000000D+00
   289  2.8800000000000D+00  0.0000000000000D+00  0.0000000000000D+00
   290  2.8900000000000D+00  0.0000000000000D+00  0.0000000000000D+00
   291  2.9000000000000D+00  0.0000000000000D+00  0.0000000000000D+00
   292  2.9100000000000D+00  0.0000000000000D+00  0.0000000000000D+00
   293  2.9200000000000D+00  0.0000000000000D+00  0.0000000000000D+00
   294  2.9300000000000D+00  0.0000000000000D+00  0.0000000000000D+00
   295  2.9400000000000D+00  0.0000000000000D+00  0.0000000000000D+00
   296  2.9500000000000D+00  0.0000000000000D+00  0.0000000000000D+00
   297  2.9600000000000D+00  0.0000000000000D+00  0.0000000000000D+00
   298  2.9700000000000D+00  0.0000000000000D+00  0.0000000000000D+00
   299  2.9800000000000D+00  0.0000000000000D+00  0.0000000000000D+00
   300  2.9900000000000D+00  0.0000000000000D+00  0.0000000000000D+00
   301  3.0000000000000D+00  0.0000000000000D+00  0.0000000000000D+00
   302  3.0100000000000D+00  0.0000000000000D+00  0.0000000000000D+00
   303  3.0200000000000D+00  0.0000000000000D+00  0.0000000000000D+00
   304  3.0300000000000D+00  0.0000000000000D+00  0.0000000000000D+00
   305  3.0400000000000D+00  0.0000000000000D+00  0.0000000000000D+00
   306  3.0500000000000D+00  0.0000000000000D+00  0.0000000000000D+00
   307  3.0600000000000D+00  0.0000000000000D+00  0.0000000000000D+00
   308  3.0700000000000D+00  0.0000000000000D+00  0.0000000000000D+00
   309  3.0800000000000D+00  0.0000000000000D+00  0.0000000000000D+00
   310  3.0900000000000D+00  0.0000000000000D+00  0.0000000000000D+00
   311  3.1000000000000D+00  0.0000000000000D+00  0.0000000000000D+00
   312  3.1100000000000D+00  0.0000000000000D+00  0.0000000000000D+00
   313  3.1200000000000D+00  0.0000000000000D+00  0.0000000000000D+00
   314  3.1300000000000D+00  0.0000000000000D+00  0.0000000000000D+00
   315  3.1400000000000D+00  0.0000000000000D+00  0.0000000000000D+00
   316  3.1500000000000D+00  0.0000000000000D+00  0.0000000000000D+00
   317  3.1600000000000D+00  0.0000000000000D+00  0.0000000000000D+00
   318  3.1700000000000D+00  0.0000000000000D+00  0.0000000000000D+00
   319  3.1800000000000D+00  0.0000000000000D+00  0.0000000000000D+00
   320  3.1900000000000D+00  0.0000000000000D+00  0.0000000000000D+00
   321  3.2000000000000D+00  0.0000000000000D+00  0.0000000000000D+00
   322  3.2100000000000D+00  0.0000000000000D+00  0.0000000000000D+00
   323  3.2200000000000D+00  0.0000000000000D+00  0.0000000000000D+00
   324  3.2300000000000D+00  0.0000000000000D+00  0.0000000000000D+00
   325  3.2400000000000D+00  0.0000000000000D+00  0.0000000000000D+00
   326  3.2500000000000D+00  0.0000000000000D+00  0.0000000000000D+00
   327  3.2600000000000D+00  0.0000000000000D+00  0.0000000000000D+00
   328  3.2700000000000D+00  0.0000000000000D+00  0.0000000000000D+00
   329  3.2800000000000D+00  0.0000000000000D+00  0.0000000000000D+00
   330  3.2900000000000D+00  0.0000000000000D+00  0.0000000000000D+00
   331  3.3000000000000D+00  0.0000000000000D+00  0.0000000000000D+00
   332  3.3100000000000D+00  0.0000000000000D+00  0.0000000000000D+00
   333  3.3200000000000D+00  0.0000000000000D+00  0.0000000000000D+00
   334  3.3300000000000D+00  0.0000000000000D+00  0.0000000000000D+00
   335  3.3400000000000D+00  0.0000000000000D+00  0.0000000000000D+00
   336  3.3500000000000D+00  0.0000000000000D+00  0.0000000000000D+00
   337  3.3600000000000D+00  0.0000000000000D+00  0.0000000000000D+00
   338  3.3700000000000D+00  0.0000000000000D+00  0.0000000000000D+00
   339  3.3800000000000D+00  0.0000000000000D+00  0.0000000000000D+00
   340  3.3900000000000D+00  0.0000000000000D+00  0.0000000000000D+00
   341  3.4000000000000D+00  0.0000000000000D+00  0.0000000000000D+00
   342  3.4100000000000D+00  0.0000000000000D+00  0.0000000000000D+00
   343  3.4200000000000D+00  0.0000000000000D+00  0.0000000000000D+00
   344  3.4300000000000D+00  0.0000000000000D+00  0.0000000000000D+00
   345  3.4400000000000D+00  0.0000000000000D+00  0.0000000000000D+00
   346  3.4500000000000D+00  0.0000000000000D+00  0.0000000000000D+00
   347  3.4600000000000D+00  0.0000000000000D+00  0.0000000000000D+00
   348  3.4700000000000D+00  0.0000000000000D+00  0.0000000000000D+00
   349  3.4800000000000D+00  0.0000000000000D+00  0.0000000000000D+00
   350  3.4900000000000D+00  0.0000000000000D+00  0.0000000000000D+00
   351  3.5000000000000D+00  0.0000000000000D+00  0.0000000000000D+00
   352  3.5100000000000D+00  0.0000000000000D+00  0.0000000000000D+00
   353  3.5200000000000D+00  0.0000000000000D+00  0.0000000000000D+00
   354  3.5300000000000D+00  0.0000000000000D+00  0.0000000000000D+00
   355  3.5400000000000D+00  0.0000000000000D+00  0.0000000000000D+00
   356  3.5500000000000D+00  0.0000000000000D+00  0.0000000000000D+00
   357  3.5600000000000D+00  0.0000000000000D+00  0.0000000000000D+00
   358  3.5700000000000D+00  0.0000000000000D+00  0.0000000000000D+00
   359  3.5800000000000D+00  0.0000000000000D+00  0.0000000000000D+00
   360  3.5900000000000D+00  0.0000000000000D+00  0.0000000000000D+00
   361  3.6000000000000D+00  0.0000000000000D+00  0.0000000000000D+00
   362  3.6100000000000D+00  0.0000000000000D+00  0.0000000000000D+00
   363  3.6200000000000D+00  0.0000000000000D+00  0.0000000000000D+00
   364  3.6300000000000D+00  0.0000000000000D+00  0.0000000000000D+00
   365  3.6400000000000D+00  0.0000000000000D+00  0.0000000000000D+00
   366  3.6500000000000D+00  0.0000000000000D+00  0.0000000000000D+00
   367  3.6600000000000D+00  0.0000000000000D+00  0.0000000000000D+00
   368  3.6700000000000D+00  0.0000000000000D+00  0.0000000000000D+00
   369  3.6800000000000D+00  0.0000000000000D+00  0.0000000000000D+00
   370  3.6900000000000D+00  0.0000000000000D+00  0.0000000000000D+00
   371  3.7000000000000D+00  0.0000000000000D+00  0.0000000000000D+00
   372  3.7100000000000D+00  0.0000000000000D+00  0.0000000000000D+00
   373  3.7200000000000D+00  0.0000000000000D+00  0.0000000000000D+00
   374  3.7300000000000D+00  0.0000000000000D+00  0.0000000000000D+00
   375  3.7400000000000D+00  0.0000000000000D+00  0.0000000000000D+00
   376  3.7500000000000D+00  0.0000000000000D+00  0.0000000000000D+00
   377  3.7600000000000D+00  0.0000000000000D+00  0.0000000000000D+00
   378  3.7700000000000D+00  0.0000000000000D+00  0.0000000000000D+00
   379  3.7800000000000D+00  0.0000000000000D+00  0.0000000000000D+00
   380  3.7900000000000D+00  0.0000000000000D+00  0.0000000000000D+00
   381  3.8000000000000D+00  0.0000000000000D+00  0.0000000000000D+00
   382  3.8100000000000D+00  0.0000000000000D+00  0.0000000000000D+00
   383  3.8200000000000D+00  0.0000000000000D+00  0.0000000000000D+00
   384  3.8300000000000D+00  0.0000000000000D+00  0.0000000000000D+00
   385  3.8400000000000D+00  0.0000000000000D+00  0.0000000000000D+00
   386  3.8500000000000D+00  0.0000000000000D+00  0.0000000000000D+00
   387  3.8600000000000D+00  0.0000000000000D+00  0.0000000000000D+00
   388  3.8700000000000D+00  0.0000000000000D+00  0.0000000000000D+00
   389  3.8800000000000D+00  0.0000000000000D+00  0.0000000000000D+00
   390  3.8900000000000D+00  0.0000000000000D+00  0.0000000000000D+00
   391  3.9000000000000D+00  0.0000000000000D+00  0.0000000000000D+00
   392  3.9100000000000D+00  0.0000000000000D+00  0.0000000000000D+00
   393  3.9200000000000D+00  0.0000000000000D+00  0.0000000000000D+00
   394  3.9300000000000D+00  0.0000000000000D+00  0.0000000000000D+00
   395  3.9400000000000D+00  0.0000000000000D+00  0.0000000000000D+00
   396  3.9500000000000D+00  0.0000000000000D+00  0.0000000000000D+00
   397  3.9600000000000D+00  0.0000000000000D+00  0.0000000000000D+00
   398  3.9700000000000D+00  0.0000000000000D+00  0.0000000000000D+00
   399  3.9800000000000D+00  0.0000000000000D+00  0.0000000000000D+00
   400  3.9900000000000D+00  0.0000000000000D+00  0.0000000000000D+00
   401  4.0000000000000D+00  0.0000000000000D+00  0.0000000000000D+00
   402  4.0100000000000D+00  0.0000000000000D+00  0.0000000000000D+00
   403  4.0200000000000D+00  0.0000000000000D+00  0.0000000000000D+00
   404  4.0300000000000D+00  0.0000000000000D+00  0.0000000000000D+00
   405  4.0400000000000D+00  0.0000000000000D+00  0.0000000000000D+00
   406  4.0500000000000D+00  0.0000000000000D+00  0.0000000000000D+00
   407  4.0600000000000D+00  0.0000000000000D+00  0.0000000000000D+00
   408  4.0700000000000D+00  0.0000000000000D+00  0.0000000000000D+00
   409  4.0800000000000D+00  0.0000000000000D+00  0.0000000000000D+00
   410  4.0900000000000D+00  0.0000000000000D+00  0.0000000000000D+00
   411  4.1000000000000D+00  0.0000000000000D+00  0.0000000000000D+00
   412  4.1100000000000D+00  0.0000000000000D+00  0.0000000000000D+00
   413  4.1200000000000D+00  0.0000000000000D+00  0.0000000000000D+00
   414  4.1300000000000D+00  0.0000000000000D+00  0.0000000000000D+00
   415  4.1400000000000D+00  0.0000000000000D+00  0.0000000000000D+00
   416  4.1500000000000D+00  0.0000000000000D+00  0.0000000000000D+00
   417  4.1600000000000D+00  0.0000000000000D+00  0.0000000000000D+00
   418  4.1700000000000D+00  0.0000000000000D+00  0.0000000000000D+00
   419  4.1800000000000D+00  0.0000000000000D+00  0.0000000000000D+00
   420  4.1900000000000D+00  0.0000000000000D+00  0.0000000000000D+00
   421  4.2000000000000D+00  0.0000000000000D+00  0.0000000000000D+00
   422  4.2100000000000D+00  0.0000000000000D+00  0.0000000000000D+00