Hg    ONCVPSP-3.3.0  r_core=   1.60079   1.60079   1.45509   1.60079
     80.0000     20.0000      220117    zatom,zion,pspd
     8      11   3     4   600     0    pspcod,pspxc,lmax,lloc,mmax,r2well
  5.99000000  0.00000000  0.00000000    rchrg fchrg qchrg
     2     2     2     1     0    nproj
     1     1           extension_switch
   0                         1.4521177563789D+01  2.0111089196810D+00
     1  0.0000000000000D+00 -2.7315605333200D-10  5.0362284481631D-10
     2  1.0000000000000D-02  7.6706705859989D-02 -8.9447757906026D-03
     3  2.0000000000000D-02  1.5321169208318D-01 -1.7745021648860D-02
     4  3.0000000000000D-02  2.2931407485449D-01 -2.6257311435732D-02
     5  4.0000000000000D-02  3.0481463557893D-01 -3.4340415398590D-02
     6  5.0000000000000D-02  3.7951663750385D-01 -4.1856370493462D-02
     7  6.0000000000000D-02  4.5322662335158D-01 -4.8671517623467D-02
     8  7.0000000000000D-02  5.2575518795706D-01 -5.4657495363188D-02
     9  8.0000000000000D-02  5.9691772017783D-01 -5.9692180242386D-02
    10  9.0000000000000D-02  6.6653510867938D-01 -6.3660564280980D-02
    11  1.0000000000000D-01  7.3443440659272D-01 -6.6455561193628D-02
    12  1.1000000000000D-01  8.0044945048880D-01 -6.7978733508430D-02
    13  1.2000000000000D-01  8.6442142961137D-01 -6.8140933760285D-02
    14  1.3000000000000D-01  9.2619940184900D-01 -6.6862853915045D-02
    15  1.4000000000000D-01  9.8564075350378D-01 -6.4075478244314D-02
    16  1.5000000000000D-01  1.0426116005204D+00 -5.9720435989961D-02
    17  1.6000000000000D-01  1.0969871294689D+00 -5.3750251319250D-02
    18  1.7000000000000D-01  1.1486518772185D+00 -4.6128489262526D-02
    19  1.8000000000000D-01  1.1974999488949D+00 -3.6829797531366D-02
    20  1.9000000000000D-01  1.2434351743630D+00 -2.5839845321874D-02
    21  2.0000000000000D-01  1.2863712041272D+00 -1.3155161401228D-02
    22  2.1000000000000D-01  1.3262315461676D+00  1.2171250588242D-03
    23  2.2000000000000D-01  1.3629495458411D+00  1.7259636313903D-02
    24  2.3000000000000D-01  1.3964683115524D+00  3.4945184888395D-02
    25  2.4000000000000D-01  1.4267405894411D+00  5.4237292769984D-02
    26  2.5000000000000D-01  1.4537285908268D+00  7.5090783381921D-02
    27  2.6000000000000D-01  1.4774037766012D+00  9.7452437930615D-02
    28  2.7000000000000D-01  1.4977466031475D+00  1.2126170700171D-01
    29  2.8000000000000D-01  1.5147462346966D+00  1.4645146766623D-01
    30  2.9000000000000D-01  1.5284002272962D+00  1.7294881586623D-01
    31  3.0000000000000D-01  1.5387141897657D+00  2.0067588348530D-01
    32  3.1000000000000D-01  1.5457014271345D+00  2.2955066927670D-01
    33  3.2000000000000D-01  1.5493825721163D+00  2.5948787272653D-01
    34  3.3000000000000D-01  1.5497852101482D+00  2.9039971997139D-01
    35  3.4000000000000D-01  1.5469435034290D+00  3.2219677107195D-01
    36  3.5000000000000D-01  1.5408978192231D+00  3.5478869826312D-01
    37  3.6000000000000D-01  1.5316943674526D+00  3.8808502525615D-01
    38  3.7000000000000D-01  1.5193848522935D+00  4.2199581825312D-01
    39  3.8000000000000D-01  1.5040261421146D+00  4.5643232004402D-01
    40  3.9000000000000D-01  1.4856799616609D+00  4.9130751938323D-01
    41  4.0000000000000D-01  1.4644126098920D+00  5.2653664877619D-01
    42  4.1000000000000D-01  1.4402947063415D+00  5.6203760483814D-01
    43  4.2000000000000D-01  1.4134009682789D+00  5.9773128650281D-01
    44  4.3000000000000D-01  1.3838100203330D+00  6.3354184754622D-01
    45  4.4000000000000D-01  1.3516042375860D+00  6.6939686113595D-01
    46  4.5000000000000D-01  1.3168696224775D+00  7.0522739540293D-01
    47  4.6000000000000D-01  1.2796957151799D+00  7.4096800034635D-01
    48  4.7000000000000D-01  1.2401755364206D+00  7.7655660770424D-01
    49  4.8000000000000D-01  1.1984055610573D+00  8.1193434673859D-01
    50  4.9000000000000D-01  1.1544857200501D+00  8.4704528017365D-01
    51  5.0000000000000D-01  1.1085194278490D+00  8.8183606577626D-01
    52  5.1000000000000D-01  1.0606136316140D+00  9.1625555025700D-01
    53  5.2000000000000D-01  1.0108788781372D+00  9.5025430328768D-01
    54  5.3000000000000D-01  9.5942939383747D-01  9.8378410045548D-01
    55  5.4000000000000D-01  9.0638317275774D-01  1.0167973648943D+00
    56  5.5000000000000D-01  8.5186206712680D-01  1.0492465781344D+00
    57  5.6000000000000D-01  7.9599187475113D-01  1.0810836713794D+00
    58  5.7000000000000D-01  7.3890241728632D-01  1.1122594089477D+00
    59  5.8000000000000D-01  6.8072760330735D-01  1.1427227759846D+00
    60  5.9000000000000D-01  6.2160547005526D-01  1.1724203827686D+00
    61  6.0000000000000D-01  5.6167819778784D-01  1.2012958979791D+00
    62  6.1000000000000D-01  5.0109209080490D-01  1.2292895231712D+00
    63  6.2000000000000D-01  4.3999751945588D-01  1.2563375204055D+00
    64  6.3000000000000D-01  3.7854881776761D-01  1.2823718045177D+00
    65  6.4000000000000D-01  3.1690413174993D-01  1.3073196108748D+00
    66  6.5000000000000D-01  2.5522521394744D-01  1.3311032486639D+00
    67  6.6000000000000D-01  1.9367716039587D-01  1.3536399488039D+00
    68  6.7000000000000D-01  1.3242808681166D-01  1.3748418144662D+00
    69  6.8000000000000D-01  7.1648741585170D-02  1.3946158809443D+00
    70  6.9000000000000D-01  1.1512053951789D-02  1.4128642902463D+00
    71  7.0000000000000D-01 -4.7807383429617D-02  1.4294845843140D+00
    72  7.1000000000000D-01 -1.0613389735419D-01  1.4443701191970D+00
    73  7.2000000000000D-01 -1.6329138133420D-01  1.4574106008729D+00
    74  7.3000000000000D-01 -2.1910400521762D-01  1.4684927417077D+00
    75  7.4000000000000D-01 -2.7339698416037D-01  1.4775010348167D+00
    76  7.5000000000000D-01 -3.2599740298642D-01  1.4843186418528D+00
    77  7.6000000000000D-01 -3.7673509100941D-01  1.4888283880048D+00
    78  7.7000000000000D-01 -4.2544354146692D-01  1.4909138562944D+00
    79  7.8000000000000D-01 -4.7196086882867D-01  1.4904605716156D+00
    80  7.9000000000000D-01 -5.1613079640480D-01  1.4873572633895D+00
    81  8.0000000000000D-01 -5.5780366590901D-01  1.4814971942378D+00
    82  8.1000000000000D-01 -5.9683745993614D-01  1.4727795407337D+00
    83  8.2000000000000D-01 -6.3309882770562D-01  1.4611108110747D+00
    84  8.3000000000000D-01 -6.6646410391147D-01  1.4464062834756D+00
    85  8.4000000000000D-01 -6.9682031011479D-01  1.4285914482059D+00
    86  8.5000000000000D-01 -7.2406612782535D-01  1.4076034355111D+00
    87  8.6000000000000D-01 -7.4811283225015D-01  1.3833924111821D+00
    88  8.7000000000000D-01 -7.6888517564594D-01  1.3559229212703D+00
    89  8.8000000000000D-01 -7.8632220930230D-01  1.3251751674098D+00
    90  8.9000000000000D-01 -8.0037803340535D-01  1.2911461943941D+00
    91  9.0000000000000D-01 -8.1102246439046D-01  1.2538509720806D+00
    92  9.1000000000000D-01 -8.1824160988415D-01  1.2133233543443D+00
    93  9.2000000000000D-01 -8.2203834195878D-01  1.1696168986925D+00
    94  9.3000000000000D-01 -8.2243266017483D-01  1.1228055312539D+00
    95  9.4000000000000D-01 -8.1946193675792D-01  1.0729840431808D+00
    96  9.5000000000000D-01 -8.1318103724510D-01  1.0202684060293D+00
    97  9.6000000000000D-01 -8.0366231102705D-01  9.6479589539609D-01
    98  9.7000000000000D-01 -7.9099544740065D-01  9.0672501398195D-01
    99  9.8000000000000D-01 -7.7528719401202D-01  8.4623520728159D-01
   100  9.9000000000000D-01 -7.5666093593992D-01  7.8352636732379D-01
   101  1.0000000000000D+00 -7.3525613499685D-01  7.1881812205012D-01
   102  1.0100000000000D+00 -7.1122763034905D-01  6.5234891042749D-01
   103  1.0200000000000D+00 -6.8474480295913D-01  5.8437484571008D-01
   104  1.0300000000000D+00 -6.5599060784646D-01  5.1516837174784D-01
   105  1.0400000000000D+00 -6.2516047961119D-01  4.4501671966541D-01
   106  1.0500000000000D+00 -5.9246111814767D-01  3.7422017472594D-01
   107  1.0600000000000D+00 -5.5810916275451D-01  3.0309016536034D-01
   108  1.0700000000000D+00 -5.2232976430868D-01  2.3194718882469D-01
   109  1.0800000000000D+00 -4.8535506634765D-01  1.6111858996359D-01
   110  1.0900000000000D+00 -4.4742260707058D-01  9.0936211565246D-02
   111  1.1000000000000D+00 -4.0877365537184D-01  2.1733936710611D-02
   112  1.1100000000000D+00 -3.6965149480702D-01 -4.6154855107029D-02
   113  1.1200000000000D+00 -3.3029967037816D-01 -1.1239989456629D-01
   114  1.1300000000000D+00 -2.9096021352321D-01 -1.7667666737471D-01
   115  1.1400000000000D+00 -2.5187186123140D-01 -2.3866907196762D-01
   116  1.1500000000000D+00 -2.1326828549080D-01 -2.9807206406922D-01
   117  1.1600000000000D+00 -1.7537634949162D-01 -3.5459426165624D-01
   118  1.1700000000000D+00 -1.3841440693174D-01 -4.0796048390965D-01
   119  1.1800000000000D+00 -1.0259066045097D-01 -4.5791419816405D-01
   120  1.1900000000000D+00 -6.8101595125306D-02 -5.0421984896738D-01
   121  1.2000000000000D+00 -3.5130502089762D-02 -5.4666504466150D-01
   122  1.2100000000000D+00 -3.8461066610432D-03 -5.8506257799914D-01
   123  1.2200000000000D+00  2.5598685432290D-02 -6.1925225850792D-01
   124  1.2300000000000D+00  5.3067911151111D-02 -6.4910253596981D-01
   125  1.2400000000000D+00  7.8443531584172D-02 -6.7451189691580D-01
   126  1.2500000000000D+00  1.0162626188879D-01 -6.9541001791901D-01
   127  1.2600000000000D+00  1.2253624083337D-01 -7.1175866097309D-01
   128  1.2700000000000D+00  1.4111353375188D-01 -7.2355230067678D-01
   129  1.2800000000000D+00  1.5731846382820D-01 -7.3081847477450D-01
   130  1.2900000000000D+00  1.7113176747974D-01 -7.3361785098357D-01
   131  1.3000000000000D+00  1.8255457338662D-01 -7.3204400926977D-01
   132  1.3100000000000D+00  1.9160820518903D-01 -7.2622293953144D-01
   133  1.3200000000000D+00  1.9833380913302D-01 -7.1631225671491D-01
   134  1.3300000000000D+00  2.0279181217756D-01 -7.0250014241005D-01
   135  1.3400000000000D+00  2.0506121540501D-01 -6.8500402086570D-01
   136  1.3500000000000D+00  2.0523873014518D-01 -6.6406898161960D-01
   137  1.3600000000000D+00  2.0343776759538D-01 -6.3996596656257D-01
   138  1.3700000000000D+00  1.9978729097243D-01 -6.1298973634169D-01
   139  1.3800000000000D+00  1.9443054395502D-01 -5.8345663887776D-01
   140  1.3900000000000D+00  1.8752366937091D-01 -5.5170220310701D-01
   141  1.4000000000000D+00  1.7923423177797D-01 -5.1807858054102D-01
   142  1.4100000000000D+00  1.6973966704286D-01 -4.8295187421793D-01
   143  1.4200000000000D+00  1.5922564062361D-01 -4.4669931623426D-01
   144  1.4300000000000D+00  1.4788446667131D-01 -4.0970657872464D-01
   145  1.4400000000000D+00  1.3591314110383D-01 -3.7236436655674D-01
   146  1.4500000000000D+00  1.2351217616022D-01 -3.3506653725508D-01
   147  1.4600000000000D+00  1.1088380116126D-01 -2.9820703179745D-01
   148  1.4700000000000D+00  9.8227675537650D-02 -2.6217203289326D-01
   149  1.4800000000000D+00  8.5737130911871D-02 -2.2733321033357D-01
   150  1.4900000000000D+00  7.3594855090556D-02 -1.9403997239407D-01
   151  1.5000000000000D+00  6.1970881248719D-02 -1.6261610676443D-01
   152  1.5100000000000D+00  5.1021647269865D-02 -1.3335847556901D-01
   153  1.5200000000000D+00  4.0888201625221D-02 -1.0653401586457D-01
   154  1.5300000000000D+00  3.1694982030483D-02 -8.2377813192079D-02
   155  1.5400000000000D+00  2.3548617056285D-02 -6.1091176233819D-02
   156  1.5500000000000D+00  1.6540716761835D-02 -4.2849903946710D-02
   157  1.5600000000000D+00  1.0730951148364D-02 -2.7761129254560D-02
   158  1.5700000000000D+00  6.1419224607300D-03 -1.5851883744613D-02
   159  1.5800000000000D+00  2.8775509516662D-03 -7.3718326353312D-03
   160  1.5900000000000D+00  1.0014129266440D-03 -2.4785722446547D-03
   161  1.6000000000000D+00  1.9560450957453D-04 -3.8379387109343D-04
   162  1.6100000000000D+00 -2.1082678630827D-05  1.2157034399723D-04
   163  1.6200000000000D+00 -1.0810964289395D-08  3.9188644099608D-08
   164  1.6300000000000D+00  1.7684632240147D-05 -5.8920083359155D-05
   165  1.6400000000000D+00 -2.3936612419914D-07  9.6192046044595D-07
   166  1.6500000000000D+00 -2.5003574747535D-06  9.3916621237083D-06
   167  1.6600000000000D+00 -7.6878500295539D-08  1.4219596293207D-07
   168  1.6700000000000D+00 -4.5228338533056D-07  8.3655210817096D-07
   169  1.6800000000000D+00  0.0000000000000D+00  0.0000000000000D+00
   170  1.6900000000000D+00  0.0000000000000D+00  0.0000000000000D+00
   171  1.7000000000000D+00  0.0000000000000D+00  0.0000000000000D+00
   172  1.7100000000000D+00  0.0000000000000D+00  0.0000000000000D+00
   173  1.7200000000000D+00  0.0000000000000D+00  0.0000000000000D+00
   174  1.7300000000000D+00  0.0000000000000D+00  0.0000000000000D+00
   175  1.7400000000000D+00  0.0000000000000D+00  0.0000000000000D+00
   176  1.7500000000000D+00  0.0000000000000D+00  0.0000000000000D+00
   177  1.7600000000000D+00  0.0000000000000D+00  0.0000000000000D+00
   178  1.7700000000000D+00  0.0000000000000D+00  0.0000000000000D+00
   179  1.7800000000000D+00  0.0000000000000D+00  0.0000000000000D+00
   180  1.7900000000000D+00  0.0000000000000D+00  0.0000000000000D+00
   181  1.8000000000000D+00  0.0000000000000D+00  0.0000000000000D+00
   182  1.8100000000000D+00  0.0000000000000D+00  0.0000000000000D+00
   183  1.8200000000000D+00  0.0000000000000D+00  0.0000000000000D+00
   184  1.8300000000000D+00  0.0000000000000D+00  0.0000000000000D+00
   185  1.8400000000000D+00  0.0000000000000D+00  0.0000000000000D+00
   186  1.8500000000000D+00  0.0000000000000D+00  0.0000000000000D+00
   187  1.8600000000000D+00  0.0000000000000D+00  0.0000000000000D+00
   188  1.8700000000000D+00  0.0000000000000D+00  0.0000000000000D+00
   189  1.8800000000000D+00  0.0000000000000D+00  0.0000000000000D+00
   190  1.8900000000000D+00  0.0000000000000D+00  0.0000000000000D+00
   191  1.9000000000000D+00  0.0000000000000D+00  0.0000000000000D+00
   192  1.9100000000000D+00  0.0000000000000D+00  0.0000000000000D+00
   193  1.9200000000000D+00  0.0000000000000D+00  0.0000000000000D+00
   194  1.9300000000000D+00  0.0000000000000D+00  0.0000000000000D+00
   195  1.9400000000000D+00  0.0000000000000D+00  0.0000000000000D+00
   196  1.9500000000000D+00  0.0000000000000D+00  0.0000000000000D+00
   197  1.9600000000000D+00  0.0000000000000D+00  0.0000000000000D+00
   198  1.9700000000000D+00  0.0000000000000D+00  0.0000000000000D+00
   199  1.9800000000000D+00  0.0000000000000D+00  0.0000000000000D+00
   200  1.9900000000000D+00  0.0000000000000D+00  0.0000000000000D+00
   201  2.0000000000000D+00  0.0000000000000D+00  0.0000000000000D+00
   202  2.0100000000000D+00  0.0000000000000D+00  0.0000000000000D+00
   203  2.0200000000000D+00  0.0000000000000D+00  0.0000000000000D+00
   204  2.0300000000000D+00  0.0000000000000D+00  0.0000000000000D+00
   205  2.0400000000000D+00  0.0000000000000D+00  0.0000000000000D+00
   206  2.0500000000000D+00  0.0000000000000D+00  0.0000000000000D+00
   207  2.0600000000000D+00  0.0000000000000D+00  0.0000000000000D+00
   208  2.0700000000000D+00  0.0000000000000D+00  0.0000000000000D+00
   209  2.0800000000000D+00  0.0000000000000D+00  0.0000000000000D+00
   210  2.0900000000000D+00  0.0000000000000D+00  0.0000000000000D+00
   211  2.1000000000000D+00  0.0000000000000D+00  0.0000000000000D+00
   212  2.1100000000000D+00  0.0000000000000D+00  0.0000000000000D+00
   213  2.1200000000000D+00  0.0000000000000D+00  0.0000000000000D+00
   214  2.1300000000000D+00  0.0000000000000D+00  0.0000000000000D+00
   215  2.1400000000000D+00  0.0000000000000D+00  0.0000000000000D+00
   216  2.1500000000000D+00  0.0000000000000D+00  0.0000000000000D+00
   217  2.1600000000000D+00  0.0000000000000D+00  0.0000000000000D+00
   218  2.1700000000000D+00  0.0000000000000D+00  0.0000000000000D+00
   219  2.1800000000000D+00  0.0000000000000D+00  0.0000000000000D+00
   220  2.1900000000000D+00  0.0000000000000D+00  0.0000000000000D+00
   221  2.2000000000000D+00  0.0000000000000D+00  0.0000000000000D+00
   222  2.2100000000000D+00  0.0000000000000D+00  0.0000000000000D+00
   223  2.2200000000000D+00  0.0000000000000D+00  0.0000000000000D+00
   224  2.2300000000000D+00  0.0000000000000D+00  0.0000000000000D+00
   225  2.2400000000000D+00  0.0000000000000D+00  0.0000000000000D+00
   226  2.2500000000000D+00  0.0000000000000D+00  0.0000000000000D+00
   227  2.2600000000000D+00  0.0000000000000D+00  0.0000000000000D+00
   228  2.2700000000000D+00  0.0000000000000D+00  0.0000000000000D+00
   229  2.2800000000000D+00  0.0000000000000D+00  0.0000000000000D+00
   230  2.2900000000000D+00  0.0000000000000D+00  0.0000000000000D+00
   231  2.3000000000000D+00  0.0000000000000D+00  0.0000000000000D+00
   232  2.3100000000000D+00  0.0000000000000D+00  0.0000000000000D+00
   233  2.3200000000000D+00  0.0000000000000D+00  0.0000000000000D+00
   234  2.3300000000000D+00  0.0000000000000D+00  0.0000000000000D+00
   235  2.3400000000000D+00  0.0000000000000D+00  0.0000000000000D+00
   236  2.3500000000000D+00  0.0000000000000D+00  0.0000000000000D+00
   237  2.3600000000000D+00  0.0000000000000D+00  0.0000000000000D+00
   238  2.3700000000000D+00  0.0000000000000D+00  0.0000000000000D+00
   239  2.3800000000000D+00  0.0000000000000D+00  0.0000000000000D+00
   240  2.3900000000000D+00  0.0000000000000D+00  0.0000000000000D+00
   241  2.4000000000000D+00  0.0000000000000D+00  0.0000000000000D+00
   242  2.4100000000000D+00  0.0000000000000D+00  0.0000000000000D+00
   243  2.4200000000000D+00  0.0000000000000D+00  0.0000000000000D+00
   244  2.4300000000000D+00  0.0000000000000D+00  0.0000000000000D+00
   245  2.4400000000000D+00  0.0000000000000D+00  0.0000000000000D+00
   246  2.4500000000000D+00  0.0000000000000D+00  0.0000000000000D+00
   247  2.4600000000000D+00  0.0000000000000D+00  0.0000000000000D+00
   248  2.4700000000000D+00  0.0000000000000D+00  0.0000000000000D+00
   249  2.4800000000000D+00  0.0000000000000D+00  0.0000000000000D+00
   250  2.4900000000000D+00  0.0000000000000D+00  0.0000000000000D+00
   251  2.5000000000000D+00  0.0000000000000D+00  0.0000000000000D+00
   252  2.5100000000000D+00  0.0000000000000D+00  0.0000000000000D+00
   253  2.5200000000000D+00  0.0000000000000D+00  0.0000000000000D+00
   254  2.5300000000000D+00  0.0000000000000D+00  0.0000000000000D+00
   255  2.5400000000000D+00  0.0000000000000D+00  0.0000000000000D+00
   256  2.5500000000000D+00  0.0000000000000D+00  0.0000000000000D+00
   257  2.5600000000000D+00  0.0000000000000D+00  0.0000000000000D+00
   258  2.5700000000000D+00  0.0000000000000D+00  0.0000000000000D+00
   259  2.5800000000000D+00  0.0000000000000D+00  0.0000000000000D+00
   260  2.5900000000000D+00  0.0000000000000D+00  0.0000000000000D+00
   261  2.6000000000000D+00  0.0000000000000D+00  0.0000000000000D+00
   262  2.6100000000000D+00  0.0000000000000D+00  0.0000000000000D+00
   263  2.6200000000000D+00  0.0000000000000D+00  0.0000000000000D+00
   264  2.6300000000000D+00  0.0000000000000D+00  0.0000000000000D+00
   265  2.6400000000000D+00  0.0000000000000D+00  0.0000000000000D+00
   266  2.6500000000000D+00  0.0000000000000D+00  0.0000000000000D+00
   267  2.6600000000000D+00  0.0000000000000D+00  0.0000000000000D+00
   268  2.6700000000000D+00  0.0000000000000D+00  0.0000000000000D+00
   269  2.6800000000000D+00  0.0000000000000D+00  0.0000000000000D+00
   270  2.6900000000000D+00  0.0000000000000D+00  0.0000000000000D+00
   271  2.7000000000000D+00  0.0000000000000D+00  0.0000000000000D+00
   272  2.7100000000000D+00  0.0000000000000D+00  0.0000000000000D+00
   273  2.7200000000000D+00  0.0000000000000D+00  0.0000000000000D+00
   274  2.7300000000000D+00  0.0000000000000D+00  0.0000000000000D+00
   275  2.7400000000000D+00  0.0000000000000D+00  0.0000000000000D+00
   276  2.7500000000000D+00  0.0000000000000D+00  0.0000000000000D+00
   277  2.7600000000000D+00  0.0000000000000D+00  0.0000000000000D+00
   278  2.7700000000000D+00  0.0000000000000D+00  0.0000000000000D+00
   279  2.7800000000000D+00  0.0000000000000D+00  0.0000000000000D+00
   280  2.7900000000000D+00  0.0000000000000D+00  0.0000000000000D+00
   281  2.8000000000000D+00  0.0000000000000D+00  0.0000000000000D+00
   282  2.8100000000000D+00  0.0000000000000D+00  0.0000000000000D+00
   283  2.8200000000000D+00  0.0000000000000D+00  0.0000000000000D+00
   284  2.8300000000000D+00  0.0000000000000D+00  0.0000000000000D+00
   285  2.8400000000000D+00  0.0000000000000D+00  0.0000000000000D+00
   286  2.8500000000000D+00  0.0000000000000D+00  0.0000000000000D+00
   287  2.8600000000000D+00  0.0000000000000D+00  0.0000000000000D+00
   288  2.8700000000000D+00  0.0000000000000D+00  0.0000000000000D+00
   289  2.8800000000000D+00  0.0000000000000D+00  0.0000000000000D+00
   290  2.8900000000000D+00  0.0000000000000D+00  0.0000000000000D+00
   291  2.9000000000000D+00  0.0000000000000D+00  0.0000000000000D+00
   292  2.9100000000000D+00  0.0000000000000D+00  0.0000000000000D+00
   293  2.9200000000000D+00  0.0000000000000D+00  0.0000000000000D+00
   294  2.9300000000000D+00  0.0000000000000D+00  0.0000000000000D+00
   295  2.9400000000000D+00  0.0000000000000D+00  0.0000000000000D+00
   296  2.9500000000000D+00  0.0000000000000D+00  0.0000000000000D+00
   297  2.9600000000000D+00  0.0000000000000D+00  0.0000000000000D+00
   298  2.9700000000000D+00  0.0000000000000D+00  0.0000000000000D+00
   299  2.9800000000000D+00  0.0000000000000D+00  0.0000000000000D+00
   300  2.9900000000000D+00  0.0000000000000D+00  0.0000000000000D+00
   301  3.0000000000000D+00  0.0000000000000D+00  0.0000000000000D+00
   302  3.0100000000000D+00  0.0000000000000D+00  0.0000000000000D+00
   303  3.0200000000000D+00  0.0000000000000D+00  0.0000000000000D+00
   304  3.0300000000000D+00  0.0000000000000D+00  0.0000000000000D+00
   305  3.0400000000000D+00  0.0000000000000D+00  0.0000000000000D+00
   306  3.0500000000000D+00  0.0000000000000D+00  0.0000000000000D+00
   307  3.0600000000000D+00  0.0000000000000D+00  0.0000000000000D+00
   308  3.0700000000000D+00  0.0000000000000D+00  0.0000000000000D+00
   309  3.0800000000000D+00  0.0000000000000D+00  0.0000000000000D+00
   310  3.0900000000000D+00  0.0000000000000D+00  0.0000000000000D+00
   311  3.1000000000000D+00  0.0000000000000D+00  0.0000000000000D+00
   312  3.1100000000000D+00  0.0000000000000D+00  0.0000000000000D+00
   313  3.1200000000000D+00  0.0000000000000D+00  0.0000000000000D+00
   314  3.1300000000000D+00  0.0000000000000D+00  0.0000000000000D+00
   315  3.1400000000000D+00  0.0000000000000D+00  0.0000000000000D+00
   316  3.1500000000000D+00  0.0000000000000D+00  0.0000000000000D+00
   317  3.1600000000000D+00  0.0000000000000D+00  0.0000000000000D+00
   318  3.1700000000000D+00  0.0000000000000D+00  0.0000000000000D+00
   319  3.1800000000000D+00  0.0000000000000D+00  0.0000000000000D+00
   320  3.1900000000000D+00  0.0000000000000D+00  0.0000000000000D+00
   321  3.2000000000000D+00  0.0000000000000D+00  0.0000000000000D+00
   322  3.2100000000000D+00  0.0000000000000D+00  0.0000000000000D+00
   323  3.2200000000000D+00  0.0000000000000D+00  0.0000000000000D+00
   324  3.2300000000000D+00  0.0000000000000D+00  0.0000000000000D+00
   325  3.2400000000000D+00  0.0000000000000D+00  0.0000000000000D+00
   326  3.2500000000000D+00  0.0000000000000D+00  0.0000000000000D+00
   327  3.2600000000000D+00  0.0000000000000D+00  0.0000000000000D+00
   328  3.2700000000000D+00  0.0000000000000D+00  0.0000000000000D+00
   329  3.2800000000000D+00  0.0000000000000D+00  0.0000000000000D+00
   330  3.2900000000000D+00  0.0000000000000D+00  0.0000000000000D+00
   331  3.3000000000000D+00  0.0000000000000D+00  0.0000000000000D+00
   332  3.3100000000000D+00  0.0000000000000D+00  0.0000000000000D+00
   333  3.3200000000000D+00  0.0000000000000D+00  0.0000000000000D+00
   334  3.3300000000000D+00  0.0000000000000D+00  0.0000000000000D+00
   335  3.3400000000000D+00  0.0000000000000D+00  0.0000000000000D+00
   336  3.3500000000000D+00  0.0000000000000D+00  0.0000000000000D+00
   337  3.3600000000000D+00  0.0000000000000D+00  0.0000000000000D+00
   338  3.3700000000000D+00  0.0000000000000D+00  0.0000000000000D+00
   339  3.3800000000000D+00  0.0000000000000D+00  0.0000000000000D+00
   340  3.3900000000000D+00  0.0000000000000D+00  0.0000000000000D+00
   341  3.4000000000000D+00  0.0000000000000D+00  0.0000000000000D+00
   342  3.4100000000000D+00  0.0000000000000D+00  0.0000000000000D+00
   343  3.4200000000000D+00  0.0000000000000D+00  0.0000000000000D+00
   344  3.4300000000000D+00  0.0000000000000D+00  0.0000000000000D+00
   345  3.4400000000000D+00  0.0000000000000D+00  0.0000000000000D+00
   346  3.4500000000000D+00  0.0000000000000D+00  0.0000000000000D+00
   347  3.4600000000000D+00  0.0000000000000D+00  0.0000000000000D+00
   348  3.4700000000000D+00  0.0000000000000D+00  0.0000000000000D+00
   349  3.4800000000000D+00  0.0000000000000D+00  0.0000000000000D+00
   350  3.4900000000000D+00  0.0000000000000D+00  0.0000000000000D+00
   351  3.5000000000000D+00  0.0000000000000D+00  0.0000000000000D+00
   352  3.5100000000000D+00  0.0000000000000D+00  0.0000000000000D+00
   353  3.5200000000000D+00  0.0000000000000D+00  0.0000000000000D+00
   354  3.5300000000000D+00  0.0000000000000D+00  0.0000000000000D+00
   355  3.5400000000000D+00  0.0000000000000D+00  0.0000000000000D+00
   356  3.5500000000000D+00  0.0000000000000D+00  0.0000000000000D+00
   357  3.5600000000000D+00  0.0000000000000D+00  0.0000000000000D+00
   358  3.5700000000000D+00  0.0000000000000D+00  0.0000000000000D+00
   359  3.5800000000000D+00  0.0000000000000D+00  0.0000000000000D+00
   360  3.5900000000000D+00  0.0000000000000D+00  0.0000000000000D+00
   361  3.6000000000000D+00  0.0000000000000D+00  0.0000000000000D+00
   362  3.6100000000000D+00  0.0000000000000D+00  0.0000000000000D+00
   363  3.6200000000000D+00  0.0000000000000D+00  0.0000000000000D+00
   364  3.6300000000000D+00  0.0000000000000D+00  0.0000000000000D+00
   365  3.6400000000000D+00  0.0000000000000D+00  0.0000000000000D+00
   366  3.6500000000000D+00  0.0000000000000D+00  0.0000000000000D+00
   367  3.6600000000000D+00  0.0000000000000D+00  0.0000000000000D+00
   368  3.6700000000000D+00  0.0000000000000D+00  0.0000000000000D+00
   369  3.6800000000000D+00  0.0000000000000D+00  0.0000000000000D+00
   370  3.6900000000000D+00  0.0000000000000D+00  0.0000000000000D+00
   371  3.7000000000000D+00  0.0000000000000D+00  0.0000000000000D+00
   372  3.7100000000000D+00  0.0000000000000D+00  0.0000000000000D+00
   373  3.7200000000000D+00  0.0000000000000D+00  0.0000000000000D+00
   374  3.7300000000000D+00  0.0000000000000D+00  0.0000000000000D+00
   375  3.7400000000000D+00  0.0000000000000D+00  0.0000000000000D+00
   376  3.7500000000000D+00  0.0000000000000D+00  0.0000000000000D+00
   377  3.7600000000000D+00  0.0000000000000D+00  0.0000000000000D+00
   378  3.7700000000000D+00  0.0000000000000D+00  0.0000000000000D+00
   379  3.7800000000000D+00  0.0000000000000D+00  0.0000000000000D+00
   380  3.7900000000000D+00  0.0000000000000D+00  0.0000000000000D+00
   381  3.8000000000000D+00  0.0000000000000D+00  0.0000000000000D+00
   382  3.8100000000000D+00  0.0000000000000D+00  0.0000000000000D+00
   383  3.8200000000000D+00  0.0000000000000D+00  0.0000000000000D+00
   384  3.8300000000000D+00  0.0000000000000D+00  0.0000000000000D+00
   385  3.8400000000000D+00  0.0000000000000D+00  0.0000000000000D+00
   386  3.8500000000000D+00  0.0000000000000D+00  0.0000000000000D+00
   387  3.8600000000000D+00  0.0000000000000D+00  0.0000000000000D+00
   388  3.8700000000000D+00  0.0000000000000D+00  0.0000000000000D+00
   389  3.8800000000000D+00  0.0000000000000D+00  0.0000000000000D+00
   390  3.8900000000000D+00  0.0000000000000D+00  0.0000000000000D+00
   391  3.9000000000000D+00  0.0000000000000D+00  0.0000000000000D+00
   392  3.9100000000000D+00  0.0000000000000D+00  0.0000000000000D+00
   393  3.9200000000000D+00  0.0000000000000D+00  0.0000000000000D+00
   394  3.9300000000000D+00  0.0000000000000D+00  0.0000000000000D+00
   395  3.9400000000000D+00  0.0000000000000D+00  0.0000000000000D+00
   396  3.9500000000000D+00  0.0000000000000D+00  0.0000000000000D+00
   397  3.9600000000000D+00  0.0000000000000D+00  0.0000000000000D+00
   398  3.9700000000000D+00  0.0000000000000D+00  0.0000000000000D+00
   399  3.9800000000000D+00  0.0000000000000D+00  0.0000000000000D+00
   400  3.9900000000000D+00  0.0000000000000D+00  0.0000000000000D+00
   401  4.0000000000000D+00  0.0000000000000D+00  0.0000000000000D+00
   402  4.0100000000000D+00  0.0000000000000D+00  0.0000000000000D+00
   403  4.0200000000000D+00  0.0000000000000D+00  0.0000000000000D+00
   404  4.0300000000000D+00  0.0000000000000D+00  0.0000000000000D+00
   405  4.0400000000000D+00  0.0000000000000D+00  0.0000000000000D+00
   406  4.0500000000000D+00  0.0000000000000D+00  0.0000000000000D+00
   407  4.0600000000000D+00  0.0000000000000D+00  0.0000000000000D+00
   408  4.0700000000000D+00  0.0000000000000D+00  0.0000000000000D+00
   409  4.0800000000000D+00  0.0000000000000D+00  0.0000000000000D+00
   410  4.0900000000000D+00  0.0000000000000D+00  0.0000000000000D+00
   411  4.1000000000000D+00  0.0000000000000D+00  0.0000000000000D+00
   412  4.1100000000000D+00  0.0000000000000D+00  0.0000000000000D+00
   413  4.1200000000000D+00  0.0000000000000D+00  0.0000000000000D+00
   414  4.1300000000000D+00  0.0000000000000D+00  0.0000000000000D+00
   415  4.1400000000000D+00  0.0000000000000D+00  0.0000000000000D+00
   416  4.1500000000000D+00  0.0000000000000D+00  0.0000000000000D+00
   417  4.1600000000000D+00  0.0000000000000D+00  0.0000000000000D+00
   418  4.1700000000000D+00  0.0000000000000D+00  0.0000000000000D+00
   419  4.1800000000000D+00  0.0000000000000D+00  0.0000000000000D+00
   420  4.1900000000000D+00  0.0000000000000D+00  0.0000000000000D+00
   421  4.2000000000000D+00  0.0000000000000D+00  0.0000000000000D+00
   422  4.2100000000000D+00  0.0000000000000D+00  0.0000000000000D+00