Hg    ONCVPSP-3.3.0  r_core=   1.40394   1.45509   1.40394   1.60079
     80.0000     20.0000      220117    zatom,zion,pspd
     8      11   3     4   600     0    pspcod,pspxc,lmax,lloc,mmax,r2well
  5.99000000  0.00000000  0.00000000    rchrg fchrg qchrg
     2     2     2     1     0    nproj
     1     1           extension_switch
   0                         1.0181213561212D+01 -9.4594053669338D-01
     1  0.0000000000000D+00  2.5017021787477D-10  4.4354612205311D-09
     2  1.0000000000000D-02  6.9468061085147D-02 -7.0353633690102D-02
     3  2.0000000000000D-02  1.3881145675865D-01 -1.4020598085353D-01
     4  3.0000000000000D-02  2.0790558428404D-01 -2.0906096329001D-01
     5  4.0000000000000D-02  2.7662596985422D-01 -2.7643284537474D-01
     6  5.0000000000000D-02  3.4484834193840D-01 -3.4185122130549D-01
     7  6.0000000000000D-02  4.1244871510713D-01 -4.0486578471129D-01
     8  7.0000000000000D-02  4.7930348752924D-01 -4.6505081337427D-01
     9  8.0000000000000D-02  5.4528955508459D-01 -5.2200930625174D-01
    10  9.0000000000000D-02  6.1028444473090D-01 -5.7537671540110D-01
    11  1.0000000000000D-01  6.7416646940613D-01 -6.2482422172138D-01
    12  1.1000000000000D-01  7.3681490634618D-01 -6.7006151053490D-01
    13  1.2000000000000D-01  7.9811020025569D-01 -7.1083901083095D-01
    14  1.3000000000000D-01  8.5793419229573D-01 -7.4694957035963D-01
    15  1.4000000000000D-01  9.1617037535175D-01 -7.7822954756757D-01
    16  1.5000000000000D-01  9.7270417552740D-01 -8.0455931047242D-01
    17  1.6000000000000D-01  1.0274232592812D+00 -8.2586314183603D-01
    18  1.7000000000000D-01  1.0802178650929D+00 -8.4210855927291D-01
    19  1.8000000000000D-01  1.1309811580222D+00 -8.5330506807507D-01
    20  1.9000000000000D-01  1.1796096050112D+00 -8.5950237340152D-01
    21  2.0000000000000D-01  1.2260033682971D+00 -8.6078808693039D-01
    22  2.1000000000000D-01  1.2700667138397D+00 -8.5728497096811D-01
    23  2.2000000000000D-01  1.3117084312493D+00 -8.4914777022706D-01
    24  2.3000000000000D-01  1.3508422613260D+00 -8.3655968790240D-01
    25  2.4000000000000D-01  1.3873873269898D+00 -8.1972856819540D-01
    26  2.5000000000000D-01  1.4212685631147D+00 -7.9888285195252D-01
    27  2.6000000000000D-01  1.4524171405671D+00 -7.7426737553933D-01
    28  2.7000000000000D-01  1.4807708796035D+00 -7.4613908538493D-01
    29  2.8000000000000D-01  1.5062746477046D+00 -7.1476274177359D-01
    30  2.9000000000000D-01  1.5288807369131D+00 -6.8040668539825D-01
    31  3.0000000000000D-01  1.5485492158039D+00 -6.4333873892144D-01
    32  3.1000000000000D-01  1.5652482513486D+00 -6.0382231332180D-01
    33  3.2000000000000D-01  1.5789543961362D+00 -5.6211278517431D-01
    34  3.3000000000000D-01  1.5896528366820D+00 -5.1845420626412D-01
    35  3.4000000000000D-01  1.5973375988894D+00 -4.7307640114148D-01
    36  3.5000000000000D-01  1.6020117071241D+00 -4.2619250146777D-01
    37  3.6000000000000D-01  1.6036872938083D+00 -3.7799695838684D-01
    38  3.7000000000000D-01  1.6023856569443D+00 -3.2866406579360D-01
    39  3.8000000000000D-01  1.5981372635153D+00 -2.7834701839447D-01
    40  3.9000000000000D-01  1.5909816972948D+00 -2.2717751900129D-01
    41  4.0000000000000D-01  1.5809675501990D+00 -1.7526593972155D-01
    42  4.1000000000000D-01  1.5681522569447D+00 -1.2270203175858D-01
    43  4.2000000000000D-01  1.5526018734140D+00 -6.9556168578566D-02
    44  4.3000000000000D-01  1.5343907997670D+00 -1.5881097397529D-02
    45  4.4000000000000D-01  1.5136014499772D+00  3.8285835544051D-02
    46  4.5000000000000D-01  1.4903238700854D+00  9.2920029460803D-02
    47  4.6000000000000D-01  1.4646553080583D+00  1.4800659517637D-01
    48  4.7000000000000D-01  1.4366997387036D+00  2.0353700247231D-01
    49  4.8000000000000D-01  1.4065673476115D+00  2.5950547484155D-01
    50  4.9000000000000D-01  1.3743739785655D+00  3.1590520350660D-01
    51  5.0000000000000D-01  1.3402405492830D+00  3.7272445707183D-01
    52  5.1000000000000D-01  1.3042924406995D+00  4.2994266644929D-01
    53  5.2000000000000D-01  1.2666588653016D+00  4.8752656666215D-01
    54  5.3000000000000D-01  1.2274722202285D+00  5.4542647772944D-01
    55  5.4000000000000D-01  1.1868674310070D+00  6.0357280604447D-01
    56  5.5000000000000D-01  1.1449812918488D+00  6.6187284546231D-01
    57  5.6000000000000D-01  1.1019518084297D+00  7.2020795371991D-01
    58  5.7000000000000D-01  1.0579175489776D+00  7.7843117487681D-01
    59  5.8000000000000D-01  1.0130170093335D+00  8.3636537220155D-01
    60  5.9000000000000D-01  9.6738799740418D-01  8.9380192849000D-01
    61  6.0000000000000D-01  9.2116704211721D-01  9.5050006218248D-01
    62  6.1000000000000D-01  8.7448883160922D-01  1.0061867980959D+00
    63  6.2000000000000D-01  8.2748568493696D-01  1.0605576211092D+00
    64  6.3000000000000D-01  7.8028706110856D-01  1.1132778299921D+00
    65  6.4000000000000D-01  7.3301910869028D-01  1.1639845968898D+00
    66  6.5000000000000D-01  6.8580425866129D-01  1.2122897258734D+00
    67  6.6000000000000D-01  6.3876086257935D-01  1.2577830917834D+00
    68  6.7000000000000D-01  5.9200287748587D-01  1.3000367283705D+00
    69  6.8000000000000D-01  5.4563959833273D-01  1.3386095227451D+00
    70  6.9000000000000D-01  4.9977543806547D-01  1.3730524615919D+00
    71  7.0000000000000D-01  4.5450975485870D-01  1.4029143636913D+00
    72  7.1000000000000D-01  4.0993672537297D-01  1.4277480230981D+00
    73  7.2000000000000D-01  3.6614526230742D-01  1.4471166782121D+00
    74  7.3000000000000D-01  3.2321897396050D-01  1.4606007139612D+00
    75  7.4000000000000D-01  2.8123616299324D-01  1.4678044976209D+00
    76  7.5000000000000D-01  2.4026986112570D-01  1.4683632435490D+00
    77  7.6000000000000D-01  2.0038789608873D-01  1.4619497983874D+00
    78  7.7000000000000D-01  1.6165298681390D-01  1.4482812362475D+00
    79  7.8000000000000D-01  1.2412286257319D-01  1.4271251530332D+00
    80  7.9000000000000D-01  8.7850401583993D-02  1.3983055504685D+00
    81  8.0000000000000D-01  5.2883784476340D-02  1.3617082035623D+00
    82  8.1000000000000D-01  1.9266657979237D-02  1.3172854101735D+00
    83  8.2000000000000D-01 -1.2961695776908D-02  1.2650600279699D+00
    84  8.3000000000000D-01 -4.3766188826818D-02  1.2051287123593D+00
    85  8.4000000000000D-01 -7.3115760096031D-02  1.1376642787917D+00
    86  8.5000000000000D-01 -1.0098321530830D-01  1.0629171240813D+00
    87  8.6000000000000D-01 -1.2734507776096D-01  9.8121565392184D-01
    88  8.7000000000000D-01 -1.5218145325572D-01  8.9296567740053D-01
    89  8.8000000000000D-01 -1.7547591201727D-01  7.9864874386031D-01
    90  8.9000000000000D-01 -1.9721538992896D-01  6.9881941271968D-01
    91  9.0000000000000D-01 -2.1739011087177D-01  5.9410146259693D-01
    92  9.1000000000000D-01 -2.3599353137942D-01  4.8518306207934D-01
    93  9.2000000000000D-01 -2.5302230822788D-01  3.7281094047865D-01
    94  9.3000000000000D-01 -2.6847628897313D-01  2.5778361267661D-01
    95  9.4000000000000D-01 -2.8235852484545D-01  1.4094372744278D-01
    96  9.5000000000000D-01 -2.9467530481422D-01  2.3169623156479D-02
    97  9.6000000000000D-01 -3.0543620906252D-01 -9.4633811551877D-02
    98  9.7000000000000D-01 -3.1465417956783D-01 -2.1154486233156D-01
    99  9.8000000000000D-01 -3.2234560498234D-01 -3.2663517792566D-01
   100  9.9000000000000D-01 -3.2853041654753D-01 -4.3898029290146D-01
   101  1.0000000000000D+00 -3.3323219139614D-01 -5.4767034654392D-01
   102  1.0100000000000D+00 -3.3647825924296D-01 -6.5182085407503D-01
   103  1.0200000000000D+00 -3.3829980822161D-01 -7.5058338296109D-01
   104  1.0300000000000D+00 -3.3873198543536D-01 -8.4315598538758D-01
   105  1.0400000000000D+00 -3.3781398768660D-01 -9.2879323855360D-01
   106  1.0500000000000D+00 -3.3558913783813D-01 -1.0068157475728D+00
   107  1.0600000000000D+00 -3.3210494231095D-01 -1.0766189701652D+00
   108  1.0700000000000D+00 -3.2741312538224D-01 -1.1376812300563D+00
   109  1.0800000000000D+00 -3.2156963617891D-01 -1.1895707950572D+00
   110  1.0900000000000D+00 -3.1463462456526D-01 -1.2319519067956D+00
   111  1.1000000000000D+00 -3.0667238255674D-01 -1.2645896634966D+00
   112  1.1100000000000D+00 -2.9775124824694D-01 -1.2873536687735D+00
   113  1.1200000000000D+00 -2.8794346987976D-01 -1.3002203794183D+00
   114  1.1300000000000D+00 -2.7732502818907D-01 -1.3032740998858D+00
   115  1.1400000000000D+00 -2.6597541584109D-01 -1.2967065922221D+00
   116  1.1500000000000D+00 -2.5397737332786D-01 -1.2808152851389D+00
   117  1.1600000000000D+00 -2.4141658150524D-01 -1.2560000901360D+00
   118  1.1700000000000D+00 -2.2838131158655D-01 -1.2227588499039D+00
   119  1.1800000000000D+00 -2.1496203422250D-01 -1.1816814670149D+00
   120  1.1900000000000D+00 -2.0125098971148D-01 -1.1334427724564D+00
   121  1.2000000000000D+00 -1.8734172245772D-01 -1.0787942228816D+00
   122  1.2100000000000D+00 -1.7332858322336D-01 -1.0185545268995D+00
   123  1.2200000000000D+00 -1.5930620330087D-01 -9.5359931641992D-01
   124  1.2300000000000D+00 -1.4536894538517D-01 -8.8484999650941D-01
   125  1.2400000000000D+00 -1.3161033647699D-01 -8.1326192169746D-01
   126  1.2500000000000D+00 -1.1812248843883D-01 -7.3981205422042D-01
   127  1.2600000000000D+00 -1.0499551222223D-01 -6.6548627013855D-01
   128  1.2700000000000D+00 -9.2316932191254D-02 -5.9126648952032D-01
   129  1.2800000000000D+00 -8.0171106924042D-02 -5.1811780554407D-01
   130  1.2900000000000D+00 -6.8638663155822D-02 -4.4697579466282D-01
   131  1.3000000000000D+00 -5.7795949446565D-02 -3.7873418715006D-01
   132  1.3100000000000D+00 -4.7714515932014D-02 -3.1423307138589D-01
   133  1.3200000000000D+00 -3.8460626696424D-02 -2.5424780969719D-01
   134  1.3300000000000D+00 -3.0094810479159D-02 -1.9947882115287D-01
   135  1.3400000000000D+00 -2.2671455424859D-02 -1.5054238679497D-01
   136  1.3500000000000D+00 -1.6238453299235D-02 -1.0796262475826D-01
   137  1.3600000000000D+00 -1.0839742772334D-02 -7.2183995895319D-02
   138  1.3700000000000D+00 -6.5015198253879D-03 -4.3474324292440D-02
   139  1.3800000000000D+00 -3.2352956711617D-03 -2.1935960099018D-02
   140  1.3900000000000D+00 -1.1524107952846D-03 -8.3342031291311D-03
   141  1.4000000000000D+00 -1.8629549282740D-04 -2.0834752351499D-03
   142  1.4100000000000D+00  5.8235034653125D-05 -1.6478784966604D-04
   143  1.4200000000000D+00  6.4436824234779D-06  1.0357080337884D-05
   144  1.4300000000000D+00 -2.0470878499141D-05 -5.0969423524857D-05
   145  1.4400000000000D+00  1.6099751356128D-06  1.5034278532194D-06
   146  1.4500000000000D+00  2.8559142696861D-06  4.1074104898543D-06
   147  1.4600000000000D+00  6.9770649014464D-08  2.3599344269664D-06
   148  1.4700000000000D+00  3.5355525921324D-08  1.1958713869487D-06
   149  1.4800000000000D+00  0.0000000000000D+00  0.0000000000000D+00
   150  1.4900000000000D+00  0.0000000000000D+00  0.0000000000000D+00
   151  1.5000000000000D+00  0.0000000000000D+00  0.0000000000000D+00
   152  1.5100000000000D+00  0.0000000000000D+00  0.0000000000000D+00
   153  1.5200000000000D+00  0.0000000000000D+00  0.0000000000000D+00
   154  1.5300000000000D+00  0.0000000000000D+00  0.0000000000000D+00
   155  1.5400000000000D+00  0.0000000000000D+00  0.0000000000000D+00
   156  1.5500000000000D+00  0.0000000000000D+00  0.0000000000000D+00
   157  1.5600000000000D+00  0.0000000000000D+00  0.0000000000000D+00
   158  1.5700000000000D+00  0.0000000000000D+00  0.0000000000000D+00
   159  1.5800000000000D+00  0.0000000000000D+00  0.0000000000000D+00
   160  1.5900000000000D+00  0.0000000000000D+00  0.0000000000000D+00
   161  1.6000000000000D+00  0.0000000000000D+00  0.0000000000000D+00
   162  1.6100000000000D+00  0.0000000000000D+00  0.0000000000000D+00
   163  1.6200000000000D+00  0.0000000000000D+00  0.0000000000000D+00
   164  1.6300000000000D+00  0.0000000000000D+00  0.0000000000000D+00
   165  1.6400000000000D+00  0.0000000000000D+00  0.0000000000000D+00
   166  1.6500000000000D+00  0.0000000000000D+00  0.0000000000000D+00
   167  1.6600000000000D+00  0.0000000000000D+00  0.0000000000000D+00
   168  1.6700000000000D+00  0.0000000000000D+00  0.0000000000000D+00
   169  1.6800000000000D+00  0.0000000000000D+00  0.0000000000000D+00
   170  1.6900000000000D+00  0.0000000000000D+00  0.0000000000000D+00
   171  1.7000000000000D+00  0.0000000000000D+00  0.0000000000000D+00
   172  1.7100000000000D+00  0.0000000000000D+00  0.0000000000000D+00
   173  1.7200000000000D+00  0.0000000000000D+00  0.0000000000000D+00
   174  1.7300000000000D+00  0.0000000000000D+00  0.0000000000000D+00
   175  1.7400000000000D+00  0.0000000000000D+00  0.0000000000000D+00
   176  1.7500000000000D+00  0.0000000000000D+00  0.0000000000000D+00
   177  1.7600000000000D+00  0.0000000000000D+00  0.0000000000000D+00
   178  1.7700000000000D+00  0.0000000000000D+00  0.0000000000000D+00
   179  1.7800000000000D+00  0.0000000000000D+00  0.0000000000000D+00
   180  1.7900000000000D+00  0.0000000000000D+00  0.0000000000000D+00
   181  1.8000000000000D+00  0.0000000000000D+00  0.0000000000000D+00
   182  1.8100000000000D+00  0.0000000000000D+00  0.0000000000000D+00
   183  1.8200000000000D+00  0.0000000000000D+00  0.0000000000000D+00
   184  1.8300000000000D+00  0.0000000000000D+00  0.0000000000000D+00
   185  1.8400000000000D+00  0.0000000000000D+00  0.0000000000000D+00
   186  1.8500000000000D+00  0.0000000000000D+00  0.0000000000000D+00
   187  1.8600000000000D+00  0.0000000000000D+00  0.0000000000000D+00
   188  1.8700000000000D+00  0.0000000000000D+00  0.0000000000000D+00
   189  1.8800000000000D+00  0.0000000000000D+00  0.0000000000000D+00
   190  1.8900000000000D+00  0.0000000000000D+00  0.0000000000000D+00
   191  1.9000000000000D+00  0.0000000000000D+00  0.0000000000000D+00
   192  1.9100000000000D+00  0.0000000000000D+00  0.0000000000000D+00
   193  1.9200000000000D+00  0.0000000000000D+00  0.0000000000000D+00
   194  1.9300000000000D+00  0.0000000000000D+00  0.0000000000000D+00
   195  1.9400000000000D+00  0.0000000000000D+00  0.0000000000000D+00
   196  1.9500000000000D+00  0.0000000000000D+00  0.0000000000000D+00
   197  1.9600000000000D+00  0.0000000000000D+00  0.0000000000000D+00
   198  1.9700000000000D+00  0.0000000000000D+00  0.0000000000000D+00
   199  1.9800000000000D+00  0.0000000000000D+00  0.0000000000000D+00
   200  1.9900000000000D+00  0.0000000000000D+00  0.0000000000000D+00
   201  2.0000000000000D+00  0.0000000000000D+00  0.0000000000000D+00
   202  2.0100000000000D+00  0.0000000000000D+00  0.0000000000000D+00
   203  2.0200000000000D+00  0.0000000000000D+00  0.0000000000000D+00
   204  2.0300000000000D+00  0.0000000000000D+00  0.0000000000000D+00
   205  2.0400000000000D+00  0.0000000000000D+00  0.0000000000000D+00
   206  2.0500000000000D+00  0.0000000000000D+00  0.0000000000000D+00
   207  2.0600000000000D+00  0.0000000000000D+00  0.0000000000000D+00
   208  2.0700000000000D+00  0.0000000000000D+00  0.0000000000000D+00
   209  2.0800000000000D+00  0.0000000000000D+00  0.0000000000000D+00
   210  2.0900000000000D+00  0.0000000000000D+00  0.0000000000000D+00
   211  2.1000000000000D+00  0.0000000000000D+00  0.0000000000000D+00
   212  2.1100000000000D+00  0.0000000000000D+00  0.0000000000000D+00
   213  2.1200000000000D+00  0.0000000000000D+00  0.0000000000000D+00
   214  2.1300000000000D+00  0.0000000000000D+00  0.0000000000000D+00
   215  2.1400000000000D+00  0.0000000000000D+00  0.0000000000000D+00
   216  2.1500000000000D+00  0.0000000000000D+00  0.0000000000000D+00
   217  2.1600000000000D+00  0.0000000000000D+00  0.0000000000000D+00
   218  2.1700000000000D+00  0.0000000000000D+00  0.0000000000000D+00
   219  2.1800000000000D+00  0.0000000000000D+00  0.0000000000000D+00
   220  2.1900000000000D+00  0.0000000000000D+00  0.0000000000000D+00
   221  2.2000000000000D+00  0.0000000000000D+00  0.0000000000000D+00
   222  2.2100000000000D+00  0.0000000000000D+00  0.0000000000000D+00
   223  2.2200000000000D+00  0.0000000000000D+00  0.0000000000000D+00
   224  2.2300000000000D+00  0.0000000000000D+00  0.0000000000000D+00
   225  2.2400000000000D+00  0.0000000000000D+00  0.0000000000000D+00
   226  2.2500000000000D+00  0.0000000000000D+00  0.0000000000000D+00
   227  2.2600000000000D+00  0.0000000000000D+00  0.0000000000000D+00
   228  2.2700000000000D+00  0.0000000000000D+00  0.0000000000000D+00
   229  2.2800000000000D+00  0.0000000000000D+00  0.0000000000000D+00
   230  2.2900000000000D+00  0.0000000000000D+00  0.0000000000000D+00
   231  2.3000000000000D+00  0.0000000000000D+00  0.0000000000000D+00
   232  2.3100000000000D+00  0.0000000000000D+00  0.0000000000000D+00
   233  2.3200000000000D+00  0.0000000000000D+00  0.0000000000000D+00
   234  2.3300000000000D+00  0.0000000000000D+00  0.0000000000000D+00
   235  2.3400000000000D+00  0.0000000000000D+00  0.0000000000000D+00
   236  2.3500000000000D+00  0.0000000000000D+00  0.0000000000000D+00
   237  2.3600000000000D+00  0.0000000000000D+00  0.0000000000000D+00
   238  2.3700000000000D+00  0.0000000000000D+00  0.0000000000000D+00
   239  2.3800000000000D+00  0.0000000000000D+00  0.0000000000000D+00
   240  2.3900000000000D+00  0.0000000000000D+00  0.0000000000000D+00
   241  2.4000000000000D+00  0.0000000000000D+00  0.0000000000000D+00
   242  2.4100000000000D+00  0.0000000000000D+00  0.0000000000000D+00
   243  2.4200000000000D+00  0.0000000000000D+00  0.0000000000000D+00
   244  2.4300000000000D+00  0.0000000000000D+00  0.0000000000000D+00
   245  2.4400000000000D+00  0.0000000000000D+00  0.0000000000000D+00
   246  2.4500000000000D+00  0.0000000000000D+00  0.0000000000000D+00
   247  2.4600000000000D+00  0.0000000000000D+00  0.0000000000000D+00
   248  2.4700000000000D+00  0.0000000000000D+00  0.0000000000000D+00
   249  2.4800000000000D+00  0.0000000000000D+00  0.0000000000000D+00
   250  2.4900000000000D+00  0.0000000000000D+00  0.0000000000000D+00
   251  2.5000000000000D+00  0.0000000000000D+00  0.0000000000000D+00
   252  2.5100000000000D+00  0.0000000000000D+00  0.0000000000000D+00
   253  2.5200000000000D+00  0.0000000000000D+00  0.0000000000000D+00
   254  2.5300000000000D+00  0.0000000000000D+00  0.0000000000000D+00
   255  2.5400000000000D+00  0.0000000000000D+00  0.0000000000000D+00
   256  2.5500000000000D+00  0.0000000000000D+00  0.0000000000000D+00
   257  2.5600000000000D+00  0.0000000000000D+00  0.0000000000000D+00
   258  2.5700000000000D+00  0.0000000000000D+00  0.0000000000000D+00
   259  2.5800000000000D+00  0.0000000000000D+00  0.0000000000000D+00
   260  2.5900000000000D+00  0.0000000000000D+00  0.0000000000000D+00
   261  2.6000000000000D+00  0.0000000000000D+00  0.0000000000000D+00
   262  2.6100000000000D+00  0.0000000000000D+00  0.0000000000000D+00
   263  2.6200000000000D+00  0.0000000000000D+00  0.0000000000000D+00
   264  2.6300000000000D+00  0.0000000000000D+00  0.0000000000000D+00
   265  2.6400000000000D+00  0.0000000000000D+00  0.0000000000000D+00
   266  2.6500000000000D+00  0.0000000000000D+00  0.0000000000000D+00
   267  2.6600000000000D+00  0.0000000000000D+00  0.0000000000000D+00
   268  2.6700000000000D+00  0.0000000000000D+00  0.0000000000000D+00
   269  2.6800000000000D+00  0.0000000000000D+00  0.0000000000000D+00
   270  2.6900000000000D+00  0.0000000000000D+00  0.0000000000000D+00
   271  2.7000000000000D+00  0.0000000000000D+00  0.0000000000000D+00
   272  2.7100000000000D+00  0.0000000000000D+00  0.0000000000000D+00
   273  2.7200000000000D+00  0.0000000000000D+00  0.0000000000000D+00
   274  2.7300000000000D+00  0.0000000000000D+00  0.0000000000000D+00
   275  2.7400000000000D+00  0.0000000000000D+00  0.0000000000000D+00
   276  2.7500000000000D+00  0.0000000000000D+00  0.0000000000000D+00
   277  2.7600000000000D+00  0.0000000000000D+00  0.0000000000000D+00
   278  2.7700000000000D+00  0.0000000000000D+00  0.0000000000000D+00
   279  2.7800000000000D+00  0.0000000000000D+00  0.0000000000000D+00
   280  2.7900000000000D+00  0.0000000000000D+00  0.0000000000000D+00
   281  2.8000000000000D+00  0.0000000000000D+00  0.0000000000000D+00
   282  2.8100000000000D+00  0.0000000000000D+00  0.0000000000000D+00
   283  2.8200000000000D+00  0.0000000000000D+00  0.0000000000000D+00
   284  2.8300000000000D+00  0.0000000000000D+00  0.0000000000000D+00
   285  2.8400000000000D+00  0.0000000000000D+00  0.0000000000000D+00
   286  2.8500000000000D+00  0.0000000000000D+00  0.0000000000000D+00
   287  2.8600000000000D+00  0.0000000000000D+00  0.0000000000000D+00
   288  2.8700000000000D+00  0.0000000000000D+00  0.0000000000000D+00
   289  2.8800000000000D+00  0.0000000000000D+00  0.0000000000000D+00
   290  2.8900000000000D+00  0.0000000000000D+00  0.0000000000000D+00
   291  2.9000000000000D+00  0.0000000000000D+00  0.0000000000000D+00
   292  2.9100000000000D+00  0.0000000000000D+00  0.0000000000000D+00
   293  2.9200000000000D+00  0.0000000000000D+00  0.0000000000000D+00
   294  2.9300000000000D+00  0.0000000000000D+00  0.0000000000000D+00
   295  2.9400000000000D+00  0.0000000000000D+00  0.0000000000000D+00
   296  2.9500000000000D+00  0.0000000000000D+00  0.0000000000000D+00
   297  2.9600000000000D+00  0.0000000000000D+00  0.0000000000000D+00
   298  2.9700000000000D+00  0.0000000000000D+00  0.0000000000000D+00
   299  2.9800000000000D+00  0.0000000000000D+00  0.0000000000000D+00
   300  2.9900000000000D+00  0.0000000000000D+00  0.0000000000000D+00
   301  3.0000000000000D+00  0.0000000000000D+00  0.0000000000000D+00
   302  3.0100000000000D+00  0.0000000000000D+00  0.0000000000000D+00
   303  3.0200000000000D+00  0.0000000000000D+00  0.0000000000000D+00
   304  3.0300000000000D+00  0.0000000000000D+00  0.0000000000000D+00
   305  3.0400000000000D+00  0.0000000000000D+00  0.0000000000000D+00
   306  3.0500000000000D+00  0.0000000000000D+00  0.0000000000000D+00
   307  3.0600000000000D+00  0.0000000000000D+00  0.0000000000000D+00
   308  3.0700000000000D+00  0.0000000000000D+00  0.0000000000000D+00
   309  3.0800000000000D+00  0.0000000000000D+00  0.0000000000000D+00
   310  3.0900000000000D+00  0.0000000000000D+00  0.0000000000000D+00
   311  3.1000000000000D+00  0.0000000000000D+00  0.0000000000000D+00
   312  3.1100000000000D+00  0.0000000000000D+00  0.0000000000000D+00
   313  3.1200000000000D+00  0.0000000000000D+00  0.0000000000000D+00
   314  3.1300000000000D+00  0.0000000000000D+00  0.0000000000000D+00
   315  3.1400000000000D+00  0.0000000000000D+00  0.0000000000000D+00
   316  3.1500000000000D+00  0.0000000000000D+00  0.0000000000000D+00
   317  3.1600000000000D+00  0.0000000000000D+00  0.0000000000000D+00
   318  3.1700000000000D+00  0.0000000000000D+00  0.0000000000000D+00
   319  3.1800000000000D+00  0.0000000000000D+00  0.0000000000000D+00
   320  3.1900000000000D+00  0.0000000000000D+00  0.0000000000000D+00
   321  3.2000000000000D+00  0.0000000000000D+00  0.0000000000000D+00
   322  3.2100000000000D+00  0.0000000000000D+00  0.0000000000000D+00
   323  3.2200000000000D+00  0.0000000000000D+00  0.0000000000000D+00
   324  3.2300000000000D+00  0.0000000000000D+00  0.0000000000000D+00
   325  3.2400000000000D+00  0.0000000000000D+00  0.0000000000000D+00
   326  3.2500000000000D+00  0.0000000000000D+00  0.0000000000000D+00
   327  3.2600000000000D+00  0.0000000000000D+00  0.0000000000000D+00
   328  3.2700000000000D+00  0.0000000000000D+00  0.0000000000000D+00
   329  3.2800000000000D+00  0.0000000000000D+00  0.0000000000000D+00
   330  3.2900000000000D+00  0.0000000000000D+00  0.0000000000000D+00
   331  3.3000000000000D+00  0.0000000000000D+00  0.0000000000000D+00
   332  3.3100000000000D+00  0.0000000000000D+00  0.0000000000000D+00
   333  3.3200000000000D+00  0.0000000000000D+00  0.0000000000000D+00
   334  3.3300000000000D+00  0.0000000000000D+00  0.0000000000000D+00
   335  3.3400000000000D+00  0.0000000000000D+00  0.0000000000000D+00
   336  3.3500000000000D+00  0.0000000000000D+00  0.0000000000000D+00
   337  3.3600000000000D+00  0.0000000000000D+00  0.0000000000000D+00
   338  3.3700000000000D+00  0.0000000000000D+00  0.0000000000000D+00
   339  3.3800000000000D+00  0.0000000000000D+00  0.0000000000000D+00
   340  3.3900000000000D+00  0.0000000000000D+00  0.0000000000000D+00
   341  3.4000000000000D+00  0.0000000000000D+00  0.0000000000000D+00
   342  3.4100000000000D+00  0.0000000000000D+00  0.0000000000000D+00
   343  3.4200000000000D+00  0.0000000000000D+00  0.0000000000000D+00
   344  3.4300000000000D+00  0.0000000000000D+00  0.0000000000000D+00
   345  3.4400000000000D+00  0.0000000000000D+00  0.0000000000000D+00
   346  3.4500000000000D+00  0.0000000000000D+00  0.0000000000000D+00
   347  3.4600000000000D+00  0.0000000000000D+00  0.0000000000000D+00
   348  3.4700000000000D+00  0.0000000000000D+00  0.0000000000000D+00
   349  3.4800000000000D+00  0.0000000000000D+00  0.0000000000000D+00
   350  3.4900000000000D+00  0.0000000000000D+00  0.0000000000000D+00
   351  3.5000000000000D+00  0.0000000000000D+00  0.0000000000000D+00
   352  3.5100000000000D+00  0.0000000000000D+00  0.0000000000000D+00
   353  3.5200000000000D+00  0.0000000000000D+00  0.0000000000000D+00
   354  3.5300000000000D+00  0.0000000000000D+00  0.0000000000000D+00
   355  3.5400000000000D+00  0.0000000000000D+00  0.0000000000000D+00
   356  3.5500000000000D+00  0.0000000000000D+00  0.0000000000000D+00
   357  3.5600000000000D+00  0.0000000000000D+00  0.0000000000000D+00
   358  3.5700000000000D+00  0.0000000000000D+00  0.0000000000000D+00
   359  3.5800000000000D+00  0.0000000000000D+00  0.0000000000000D+00
   360  3.5900000000000D+00  0.0000000000000D+00  0.0000000000000D+00
   361  3.6000000000000D+00  0.0000000000000D+00  0.0000000000000D+00
   362  3.6100000000000D+00  0.0000000000000D+00  0.0000000000000D+00
   363  3.6200000000000D+00  0.0000000000000D+00  0.0000000000000D+00
   364  3.6300000000000D+00  0.0000000000000D+00  0.0000000000000D+00
   365  3.6400000000000D+00  0.0000000000000D+00  0.0000000000000D+00
   366  3.6500000000000D+00  0.0000000000000D+00  0.0000000000000D+00
   367  3.6600000000000D+00  0.0000000000000D+00  0.0000000000000D+00
   368  3.6700000000000D+00  0.0000000000000D+00  0.0000000000000D+00
   369  3.6800000000000D+00  0.0000000000000D+00  0.0000000000000D+00
   370  3.6900000000000D+00  0.0000000000000D+00  0.0000000000000D+00
   371  3.7000000000000D+00  0.0000000000000D+00  0.0000000000000D+00
   372  3.7100000000000D+00  0.0000000000000D+00  0.0000000000000D+00
   373  3.7200000000000D+00  0.0000000000000D+00  0.0000000000000D+00
   374  3.7300000000000D+00  0.0000000000000D+00  0.0000000000000D+00
   375  3.7400000000000D+00  0.0000000000000D+00  0.0000000000000D+00
   376  3.7500000000000D+00  0.0000000000000D+00  0.0000000000000D+00
   377  3.7600000000000D+00  0.0000000000000D+00  0.0000000000000D+00
   378  3.7700000000000D+00  0.0000000000000D+00  0.0000000000000D+00
   379  3.7800000000000D+00  0.0000000000000D+00  0.0000000000000D+00
   380  3.7900000000000D+00  0.0000000000000D+00  0.0000000000000D+00
   381  3.8000000000000D+00  0.0000000000000D+00  0.0000000000000D+00
   382  3.8100000000000D+00  0.0000000000000D+00  0.0000000000000D+00
   383  3.8200000000000D+00  0.0000000000000D+00  0.0000000000000D+00
   384  3.8300000000000D+00  0.0000000000000D+00  0.0000000000000D+00
   385  3.8400000000000D+00  0.0000000000000D+00  0.0000000000000D+00
   386  3.8500000000000D+00  0.0000000000000D+00  0.0000000000000D+00
   387  3.8600000000000D+00  0.0000000000000D+00  0.0000000000000D+00
   388  3.8700000000000D+00  0.0000000000000D+00  0.0000000000000D+00
   389  3.8800000000000D+00  0.0000000000000D+00  0.0000000000000D+00
   390  3.8900000000000D+00  0.0000000000000D+00  0.0000000000000D+00
   391  3.9000000000000D+00  0.0000000000000D+00  0.0000000000000D+00
   392  3.9100000000000D+00  0.0000000000000D+00  0.0000000000000D+00
   393  3.9200000000000D+00  0.0000000000000D+00  0.0000000000000D+00
   394  3.9300000000000D+00  0.0000000000000D+00  0.0000000000000D+00
   395  3.9400000000000D+00  0.0000000000000D+00  0.0000000000000D+00
   396  3.9500000000000D+00  0.0000000000000D+00  0.0000000000000D+00
   397  3.9600000000000D+00  0.0000000000000D+00  0.0000000000000D+00
   398  3.9700000000000D+00  0.0000000000000D+00  0.0000000000000D+00
   399  3.9800000000000D+00  0.0000000000000D+00  0.0000000000000D+00
   400  3.9900000000000D+00  0.0000000000000D+00  0.0000000000000D+00
   401  4.0000000000000D+00  0.0000000000000D+00  0.0000000000000D+00
   402  4.0100000000000D+00  0.0000000000000D+00  0.0000000000000D+00
   403  4.0200000000000D+00  0.0000000000000D+00  0.0000000000000D+00
   404  4.0300000000000D+00  0.0000000000000D+00  0.0000000000000D+00
   405  4.0400000000000D+00  0.0000000000000D+00  0.0000000000000D+00
   406  4.0500000000000D+00  0.0000000000000D+00  0.0000000000000D+00
   407  4.0600000000000D+00  0.0000000000000D+00  0.0000000000000D+00
   408  4.0700000000000D+00  0.0000000000000D+00  0.0000000000000D+00
   409  4.0800000000000D+00  0.0000000000000D+00  0.0000000000000D+00
   410  4.0900000000000D+00  0.0000000000000D+00  0.0000000000000D+00
   411  4.1000000000000D+00  0.0000000000000D+00  0.0000000000000D+00
   412  4.1100000000000D+00  0.0000000000000D+00  0.0000000000000D+00
   413  4.1200000000000D+00  0.0000000000000D+00  0.0000000000000D+00
   414  4.1300000000000D+00  0.0000000000000D+00  0.0000000000000D+00
   415  4.1400000000000D+00  0.0000000000000D+00  0.0000000000000D+00
   416  4.1500000000000D+00  0.0000000000000D+00  0.0000000000000D+00
   417  4.1600000000000D+00  0.0000000000000D+00  0.0000000000000D+00
   418  4.1700000000000D+00  0.0000000000000D+00  0.0000000000000D+00
   419  4.1800000000000D+00  0.0000000000000D+00  0.0000000000000D+00
   420  4.1900000000000D+00  0.0000000000000D+00  0.0000000000000D+00
   421  4.2000000000000D+00  0.0000000000000D+00  0.0000000000000D+00
   422  4.2100000000000D+00  0.0000000000000D+00  0.0000000000000D+00