Hg    ONCVPSP-3.3.0  r_core=   2.61057   2.45942   2.10614
     80.0000     12.0000      220117    zatom,zion,pspd
     8      11   2     4   600     0    pspcod,pspxc,lmax,lloc,mmax,r2well
  5.99000000  0.00000000  0.00000000    rchrg fchrg qchrg
     2     2     2     0     0    nproj
     1     1           extension_switch
   0                         5.3629720465259D+00  8.4670066985336D-01
     1  0.0000000000000D+00  5.5867810377919D-13 -1.5142331832863D-12
     2  1.0000000000000D-02  7.6845681045264D-03  1.4108244692095D-02
     3  2.0000000000000D-02  1.5389775509374D-02  2.8171327472784D-02
     4  3.0000000000000D-02  2.3136202773165D-02  4.2144209446132D-02
     5  4.0000000000000D-02  3.0944313088834D-02  5.5982097477812D-02
     6  5.0000000000000D-02  3.8834393894910D-02  6.9640566402959D-02
     7  6.0000000000000D-02  4.6826498839376D-02  8.3075680427526D-02
     8  7.0000000000000D-02  5.4940390212979D-02  9.6244113456065D-02
     9  8.0000000000000D-02  6.3195481968315D-02  1.0910326808036D-01
    10  9.0000000000000D-02  7.1610783440348D-02  1.2161139296521D-01
    11  1.0000000000000D-01  8.0204843883123D-02  1.3372769836998D-01
    12  1.1000000000000D-01  8.8995697936525D-02  1.4541246954709D-01
    13  1.2000000000000D-01  9.8000812135749D-02  1.5662717776181D-01
    14  1.3000000000000D-01  1.0723703257490D-01  1.6733458868106D-01
    15  1.4000000000000D-01  1.1672053383466D-01  1.7749886788283D-01
    16  1.5000000000000D-01  1.2646676928252D-01  1.8708568324200D-01
    17  1.6000000000000D-01  1.3649042285198D-01  1.9606230395324D-01
    18  1.7000000000000D-01  1.4680536240573D-01  2.0439769595638D-01
    19  1.8000000000000D-01  1.5742459478522D-01  2.1206261353560D-01
    20  1.9000000000000D-01  1.6836022264706D-01  2.1902968686937D-01
    21  2.0000000000000D-01  1.7962340318430D-01  2.2527350531460D-01
    22  2.1000000000000D-01  1.9122430882786D-01  2.3077069621542D-01
    23  2.2000000000000D-01  2.0317209002067D-01  2.3549999903384D-01
    24  2.3000000000000D-01  2.1547484015418D-01  2.3944233460788D-01
    25  2.4000000000000D-01  2.2813956275363D-01  2.4258086935029D-01
    26  2.5000000000000D-01  2.4117214099526D-01  2.4490107421004D-01
    27  2.6000000000000D-01  2.5457730963491D-01  2.4639077822763D-01
    28  2.7000000000000D-01  2.6835862942389D-01  2.4704021652487D-01
    29  2.8000000000000D-01  2.8251846408406D-01  2.4684207257967D-01
    30  2.9000000000000D-01  2.9705795990976D-01  2.4579151464691D-01
    31  3.0000000000000D-01  3.1197702806024D-01  2.4388622619737D-01
    32  3.1000000000000D-01  3.2727432960127D-01  2.4112643025778D-01
    33  3.2000000000000D-01  3.4294726335038D-01  2.3751490754720D-01
    34  3.3000000000000D-01  3.5899195657487D-01  2.3305700831672D-01
    35  3.4000000000000D-01  3.7540325858682D-01  2.2776065781244D-01
    36  3.5000000000000D-01  3.9217473727412D-01  2.2163635529438D-01
    37  3.6000000000000D-01  4.0929867860084D-01  2.1469716655761D-01
    38  3.7000000000000D-01  4.2676608910472D-01  2.0695870991562D-01
    39  3.8000000000000D-01  4.4456670141384D-01  1.9843913561989D-01
    40  3.9000000000000D-01  4.6268898279835D-01  1.8915909870446D-01
    41  4.0000000000000D-01  4.8112014676708D-01  1.7914172525872D-01
    42  4.1000000000000D-01  4.9984616771254D-01  1.6841257214694D-01
    43  4.2000000000000D-01  5.1885179860136D-01  1.5699958020837D-01
    44  4.3000000000000D-01  5.3812059170068D-01  1.4493302098722D-01
    45  4.4000000000000D-01  5.5763492232419D-01  1.3224543705778D-01
    46  4.5000000000000D-01  5.7737601557490D-01  1.1897157602562D-01
    47  4.6000000000000D-01  5.9732397605459D-01  1.0514831830237D-01
    48  4.7000000000000D-01  6.1745782050323D-01  9.0814598767038D-02
    49  4.8000000000000D-01  6.3775551332422D-01  7.6011322443990D-02
    50  4.9000000000000D-01  6.5819400494458D-01  6.0781274343035D-02
    51  5.0000000000000D-01  6.7874927295189D-01  4.5169023624071D-02
    52  5.1000000000000D-01  6.9939636594267D-01  2.9220822264434D-02
    53  5.2000000000000D-01  7.2010945000991D-01  1.2984498423355D-02
    54  5.3000000000000D-01  7.4086185779017D-01 -3.4906552862064D-03
    55  5.4000000000000D-01  7.6162613998363D-01 -2.0153998392461D-02
    56  5.5000000000000D-01  7.8237411925378D-01 -3.6953663784998D-02
    57  5.6000000000000D-01  8.0307694640602D-01 -5.3836683303901D-02
    58  5.7000000000000D-01  8.2370515873816D-01 -7.0749117426524D-02
    59  5.8000000000000D-01  8.4422874044880D-01 -8.7636188766348D-02
    60  5.9000000000000D-01  8.6461718498324D-01 -1.0444241908460D-01
    61  6.0000000000000D-01  8.8483955919015D-01 -1.2111176950172D-01
    62  6.1000000000000D-01  9.0486456915606D-01 -1.3758778358334D-01
    63  6.2000000000000D-01  9.2466062757910D-01 -1.5381373296289D-01
    64  6.3000000000000D-01  9.4419592253715D-01 -1.6973276515177D-01
    65  6.4000000000000D-01  9.6343848750095D-01 -1.8528805317730D-01
    66  6.5000000000000D-01  9.8235627243684D-01 -2.0042294667830D-01
    67  6.6000000000000D-01  1.0009172158395D+00 -2.1508112407958D-01
    68  6.7000000000000D-01  1.0190893175304D+00 -2.2920674545787D-01
    69  6.8000000000000D-01  1.0368407120536D+00 -2.4274460570470D-01
    70  6.9000000000000D-01  1.0541397424965D+00 -2.5564028758511D-01
    71  7.0000000000000D-01  1.0709550345606D+00 -2.6784031428593D-01
    72  7.1000000000000D-01  1.0872555707030D+00 -2.7929230104286D-01
    73  7.2000000000000D-01  1.1030107641691D+00 -2.8994510543245D-01
    74  7.3000000000000D-01  1.1181905327312D+00 -2.9974897591288D-01
    75  7.4000000000000D-01  1.1327653719509D+00 -3.0865569819648D-01
    76  7.5000000000000D-01  1.1467064277781D+00 -3.1661873903726D-01
    77  7.6000000000000D-01  1.1599855683003D+00 -3.2359338701785D-01
    78  7.7000000000000D-01  1.1725754544561D+00 -3.2953688992322D-01
    79  7.8000000000000D-01  1.1844496095269D+00 -3.3440858829207D-01
    80  7.9000000000000D-01  1.1955824872209D+00 -3.3817004474225D-01
    81  8.0000000000000D-01  1.2059495381668D+00 -3.4078516867264D-01
    82  8.1000000000000D-01  1.2155272746336D+00 -3.4222033595191D-01
    83  8.2000000000000D-01  1.2242933332993D+00 -3.4244450321312D-01
    84  8.3000000000000D-01  1.2322265358912D+00 -3.4142931638371D-01
    85  8.4000000000000D-01  1.2393069475252D+00 -3.3914921309166D-01
    86  8.5000000000000D-01  1.2455159325753D+00 -3.3558151860133D-01
    87  8.6000000000000D-01  1.2508362079110D+00 -3.3070653494649D-01
    88  8.7000000000000D-01  1.2552518933427D+00 -3.2450762294316D-01
    89  8.8000000000000D-01  1.2587485591219D+00 -3.1697127678125D-01
    90  8.9000000000000D-01  1.2613132703516D+00 -3.0808719091130D-01
    91  9.0000000000000D-01  1.2629346281654D+00 -2.9784831896153D-01
    92  9.1000000000000D-01  1.2636028075433D+00 -2.8625092443980D-01
    93  9.2000000000000D-01  1.2633095916392D+00 -2.7329462299579D-01
    94  9.3000000000000D-01  1.2620484025047D+00 -2.5898241604062D-01
    95  9.4000000000000D-01  1.2598143280994D+00 -2.4332071554356D-01
    96  9.5000000000000D-01  1.2566041454904D+00 -2.2631935984881D-01
    97  9.6000000000000D-01  1.2524163401508D+00 -2.0799162038002D-01
    98  9.7000000000000D-01  1.2472511212777D+00 -1.8835419912476D-01
    99  9.8000000000000D-01  1.2411104330610D+00 -1.6742721681720D-01
   100  9.9000000000000D-01  1.2339979618434D+00 -1.4523419176365D-01
   101  1.0000000000000D+00  1.2259191391238D+00 -1.2180200928145D-01
   102  1.0100000000000D+00  1.2168811403670D+00 -9.7160881750426D-02
   103  1.0200000000000D+00  1.2068928795950D+00 -7.1344299302569D-02
   104  1.0300000000000D+00  1.1959649997441D+00 -4.4388971203978D-02
   105  1.0400000000000D+00  1.1841098587866D+00 -1.6334758010794D-02
   106  1.0500000000000D+00  1.1713415116260D+00  1.2775405389909D-02
   107  1.0600000000000D+00  1.1576756877872D+00  4.2895595717422D-02
   108  1.0700000000000D+00  1.1431297649333D+00  7.3976996045583D-02
   109  1.0800000000000D+00  1.1277227382569D+00  1.0596799916788D-01
   110  1.0900000000000D+00  1.1114751858001D+00  1.3881431935806D-01
   111  1.1000000000000D+00  1.0944092297741D+00  1.7245911227574D-01
   112  1.1100000000000D+00  1.0765484939580D+00  2.0684310274439D-01
   113  1.1200000000000D+00  1.0579180572688D+00  2.4190472009699D-01
   114  1.1300000000000D+00  1.0385444036082D+00  2.7758024076345D-01
   115  1.1400000000000D+00  1.0184553680991D+00  3.1380393774582D-01
   116  1.1500000000000D+00  9.9768007983960D-01  3.5050823660845D-01
   117  1.1600000000000D+00  9.7624890130916D-01  3.8762387758147D-01
   118  1.1700000000000D+00  9.5419336457622D-01  4.2508008335773D-01
   119  1.1800000000000D+00  9.3154610446389D-01  4.6280473213900D-01
   120  1.1900000000000D+00  9.0834078883848D-01  5.0072453547523D-01
   121  1.2000000000000D+00  8.8461204619908D-01  5.3876522041196D-01
   122  1.2100000000000D+00  8.6039539075228D-01  5.7685171545005D-01
   123  1.2200000000000D+00  8.3572714516385D-01  6.1490833980704D-01
   124  1.2300000000000D+00  8.1064436118805D-01  6.5285899545262D-01
   125  1.2400000000000D+00  7.8518473838311D-01  6.9062736137747D-01
   126  1.2500000000000D+00  7.5938654112603D-01  7.2813708954664D-01
   127  1.2600000000000D+00  7.3328851414586D-01  7.6531200197878D-01
   128  1.2700000000000D+00  7.0692979680220D-01  8.0207628838142D-01
   129  1.2800000000000D+00  6.8034983633793D-01  8.3835470377116D-01
   130  1.2900000000000D+00  6.5358830033862D-01  8.7407276550153D-01
   131  1.3000000000000D+00  6.2668498863741D-01  9.0915694911753D-01
   132  1.3100000000000D+00  5.9967974490313D-01  9.4353488245957D-01
   133  1.3200000000000D+00  5.7261236815306D-01  9.7713553743481D-01
   134  1.3300000000000D+00  5.4552252443266D-01  1.0098894188839D+00
   135  1.3400000000000D+00  5.1844965890371D-01  1.0417287499727D+00
   136  1.3500000000000D+00  4.9143290858418D-01  1.0725876535410D+00
   137  1.3600000000000D+00  4.6451101597793D-01  1.1024023288644D+00
   138  1.3700000000000D+00  4.3772224383519D-01  1.1311112232746D+00
   139  1.3800000000000D+00  4.1110429127937D-01  1.1586551981107D+00
   140  1.3900000000000D+00  3.8469421152821D-01  1.1849776884982D+00
   141  1.4000000000000D+00  3.5852833144621D-01  1.2100248564247D+00
   142  1.4100000000000D+00  3.3264217314093D-01  1.2337457366667D+00
   143  1.4200000000000D+00  3.0707037782783D-01  1.2560923750783D+00
   144  1.4300000000000D+00  2.8184663217535D-01  1.2770199587992D+00
   145  1.4400000000000D+00  2.5700359732260D-01  1.2964869379989D+00
   146  1.4500000000000D+00  2.3257284078764D-01  1.3144551386937D+00
   147  1.4600000000000D+00  2.0858477142800D-01  1.3308898663493D+00
   148  1.4700000000000D+00  1.8506857765530D-01  1.3457599998537D+00
   149  1.4800000000000D+00  1.6205216906117D-01  1.3590380755870D+00
   150  1.4900000000000D+00  1.3956212160999D-01  1.3707003613082D+00
   151  1.5000000000000D+00  1.1762362657041D-01  1.3807269195430D+00
   152  1.5100000000000D+00  9.6260443279758D-02  1.3891016603670D+00
   153  1.5200000000000D+00  7.5494855927084D-02  1.3958123832305D+00
   154  1.5300000000000D+00  5.5347634403586D-02  1.4008508078437D+00
   155  1.5400000000000D+00  3.5837999381463D-02  1.4042125938385D+00
   156  1.5500000000000D+00  1.6983591665538D-02  1.4058973492344D+00
   157  1.5600000000000D+00 -1.1995540799774D-03  1.4059086275853D+00
   158  1.5700000000000D+00 -1.8697031171662D-02  1.4042539137973D+00
   159  1.5800000000000D+00 -3.5496078281570D-02  1.4009445986768D+00
   160  1.5900000000000D+00 -5.1585592270079D-02  1.3959959421552D+00
   161  1.6000000000000D+00 -6.6956136517820D-02  1.3894270254338D+00
   162  1.6100000000000D+00 -8.1599944661745D-02  1.3812606919513D+00
   163  1.6200000000000D+00 -9.5510919848602D-02  1.3715234775985D+00
   164  1.6300000000000D+00 -1.0868462939526D-01  1.3602455300464D+00
   165  1.6400000000000D+00 -1.2111829503650D-01  1.3474605177733D+00
   166  1.6500000000000D+00 -1.3281077864321D-01  1.3332055286506D+00
   167  1.6600000000000D+00 -1.4376256364049D-01  1.3175209587809D+00
   168  1.6700000000000D+00 -1.5397573202679D-01  1.3004503915017D+00
   169  1.6800000000000D+00 -1.6345393724860D-01  1.2820404672989D+00
   170  1.6900000000000D+00 -1.7220237286065D-01  1.2623407446198D+00
   171  1.7000000000000D+00 -1.8022773724909D-01  1.2414035523725D+00
   172  1.7100000000000D+00 -1.8753819437096D-01  1.2192838341668D+00
   173  1.7200000000000D+00 -1.9414333081408D-01  1.1960389851294D+00
   174  1.7300000000000D+00 -2.0005410914723D-01  1.1717286814000D+00
   175  1.7400000000000D+00 -2.0528281789371D-01  1.1464147031868D+00
   176  1.7500000000000D+00 -2.0984301811084D-01  1.1201607515342D+00
   177  1.7600000000000D+00 -2.1374948693270D-01  1.0930322597081D+00
   178  1.7700000000000D+00 -2.1701815807930D-01  1.0650961994178D+00
   179  1.7800000000000D+00 -2.1966605969117D-01  1.0364208827562D+00
   180  1.7900000000000D+00 -2.2171124953857D-01  1.0070757601914D+00
   181  1.8000000000000D+00 -2.2317274793577D-01  9.7713121540825D-01
   182  1.8100000000000D+00 -2.2407046847270D-01  9.4665835747228D-01
   183  1.8200000000000D+00 -2.2442514685266D-01  9.1572881101351D-01
   184  1.8300000000000D+00 -2.2425826801186D-01  8.8441450502269D-01
   185  1.8400000000000D+00 -2.2359199176764D-01  8.5278746087958D-01
   186  1.8500000000000D+00 -2.2244907722242D-01  8.2091958026626D-01
   187  1.8600000000000D+00 -2.2085280614197D-01  7.8888243357107D-01
   188  1.8700000000000D+00 -2.1882690555829D-01  7.5674704939355D-01
   189  1.8800000000000D+00 -2.1639546981846D-01  7.2458370585210D-01
   190  1.8900000000000D+00 -2.1358288230791D-01  6.9246172411923D-01
   191  1.9000000000000D+00 -2.1041373711291D-01  6.6044926509286D-01
   192  1.9100000000000D+00 -2.0691276079324D-01  6.2861312939125D-01
   193  1.9200000000000D+00 -2.0310473457737D-01  5.9701856170021D-01
   194  1.9300000000000D+00 -1.9901441711816D-01  5.6572905961690D-01
   195  1.9400000000000D+00 -1.9466646810383D-01  5.3480618784276D-01
   196  1.9500000000000D+00 -1.9008537291515D-01  5.0430939815179D-01
   197  1.9600000000000D+00 -1.8529536849957D-01  4.7429585546460D-01
   198  1.9700000000000D+00 -1.8032037080764D-01  4.4482027103595D-01
   199  1.9800000000000D+00 -1.7518390375638D-01  4.1593474235835D-01
   200  1.9900000000000D+00 -1.6990903022418D-01  3.8768860131135D-01
   201  2.0000000000000D+00 -1.6451828495398D-01  3.6012826990138D-01
   202  2.0100000000000D+00 -1.5903360977273D-01  3.3329712474575D-01
   203  2.0200000000000D+00 -1.5347629122342D-01  3.0723537041405D-01
   204  2.0300000000000D+00 -1.4786690065017D-01  2.8197992155991D-01
   205  2.0400000000000D+00 -1.4222523654564D-01  2.5756429212138D-01
   206  2.0500000000000D+00 -1.3657027283517D-01  2.3401850869212D-01
   207  2.0600000000000D+00 -1.3092010196855D-01  2.1136899674020D-01
   208  2.0700000000000D+00 -1.2529189317296D-01  1.8963852977769D-01
   209  2.0800000000000D+00 -1.1970185425853D-01  1.6884619069335D-01
   210  2.0900000000000D+00 -1.1416517975458D-01  1.4900727674693D-01
   211  2.1000000000000D+00 -1.0869596435627D-01  1.3013301730927D-01
   212  2.1100000000000D+00 -1.0330725528015D-01  1.1223094349272D-01
   213  2.1200000000000D+00 -9.8011065756421D-02  9.5305072998619D-02
   214  2.1300000000000D+00 -9.2818403706532D-02  7.9356142056016D-02
   215  2.1400000000000D+00 -8.7739304175788D-02  6.4381793750743D-02
   216  2.1500000000000D+00 -8.2782929669411D-02  5.0377093634789D-02
   217  2.1600000000000D+00 -7.7957537038341D-02  3.7334414682210D-02
   218  2.1700000000000D+00 -7.3270482579665D-02  2.5243482870590D-02
   219  2.1800000000000D+00 -6.8728221363665D-02  1.4091385744830D-02
   220  2.1900000000000D+00 -6.4336340158166D-02  3.8627520108254D-03
   221  2.2000000000000D+00 -6.0099566305524D-02 -5.4601999483768D-03
   222  2.2100000000000D+00 -5.6021788836166D-02 -1.3897558232623D-02
   223  2.2200000000000D+00 -5.2106081355419D-02 -2.1471610397071D-02
   224  2.2300000000000D+00 -4.8354726250310D-02 -2.8206734918870D-02
   225  2.2400000000000D+00 -4.4769241738484D-02 -3.4129284556447D-02
   226  2.2500000000000D+00 -4.1350410810917D-02 -3.9267464845989D-02
   227  2.2600000000000D+00 -3.8098312215618D-02 -4.3651207417934D-02
   228  2.2700000000000D+00 -3.5012353384023D-02 -4.7312038464643D-02
   229  2.2800000000000D+00 -3.2091304865964D-02 -5.0282943545698D-02
   230  2.2900000000000D+00 -2.9333336452347D-02 -5.2598228362667D-02
   231  2.3000000000000D+00 -2.6736054645709D-02 -5.4293376442102D-02
   232  2.3100000000000D+00 -2.4296541258328D-02 -5.5404904346605D-02
   233  2.3200000000000D+00 -2.2011393203767D-02 -5.5970214382355D-02
   234  2.3300000000000D+00 -1.9876763093944D-02 -5.6027445803291D-02
   235  2.3400000000000D+00 -1.7888400565972D-02 -5.5615324806777D-02
   236  2.3500000000000D+00 -1.6041694187948D-02 -5.4773013829909D-02
   237  2.3600000000000D+00 -1.4331713743327D-02 -5.3539960631175D-02
   238  2.3700000000000D+00 -1.2753252721418D-02 -5.1955747758058D-02
   239  2.3800000000000D+00 -1.1300870828481D-02 -5.0059942948148D-02
   240  2.3900000000000D+00 -9.9689364641325D-03 -4.7891950558734D-02
   241  2.4000000000000D+00 -8.7516688109783D-03 -4.5490865158329D-02
   242  2.4100000000000D+00 -7.6431794597077D-03 -4.2895327467137D-02
   243  2.4200000000000D+00 -6.6375136025644D-03 -4.0143382514454D-02
   244  2.4300000000000D+00 -5.7286902040117D-03 -3.7272341841050D-02
   245  2.4400000000000D+00 -4.9107413056267D-03 -3.4318649220573D-02
   246  2.4500000000000D+00 -4.1777505252474D-03 -3.1317749712975D-02
   247  2.4600000000000D+00 -3.5238898809906D-03 -2.8303964677430D-02
   248  2.4700000000000D+00 -2.9434554622384D-03 -2.5310371141240D-02
   249  2.4800000000000D+00 -2.4309018794378D-03 -2.2368685734916D-02
   250  2.4900000000000D+00 -1.9808745058011D-03 -1.9509156133389D-02
   251  2.5000000000000D+00 -1.5882402921080D-03 -1.6760457659585D-02
   252  2.5100000000000D+00 -1.2481169934873D-03 -1.4149595535117D-02
   253  2.5200000000000D+00 -9.5589761150206D-04 -1.1702227083863D-02
   254  2.5300000000000D+00 -7.0726935772336D-04 -9.4437230201878D-03
   255  2.5400000000000D+00 -4.9828206658220D-04 -7.3903425265741D-03
   256  2.5500000000000D+00 -3.2538223740321D-04 -5.5593363996409D-03
   257  2.5600000000000D+00 -1.8577747538888D-04 -3.9602850590117D-03
   258  2.5700000000000D+00 -7.5374558009927D-05 -2.6377992535041D-03
   259  2.5800000000000D+00  8.6758650760858D-06 -1.6149773763472D-03
   260  2.5900000000000D+00  7.1060469053124D-05 -9.1513351926568D-04
   261  2.6000000000000D+00  1.0624842514653D-04 -4.7118400750436D-04
   262  2.6100000000000D+00  1.1306621539565D-04 -2.2087602627468D-04
   263  2.6200000000000D+00  8.6393735032576D-05 -8.2092955637460D-05
   264  2.6300000000000D+00  4.5618046793018D-05 -2.0509049207828D-05
   265  2.6400000000000D+00  6.2082614216557D-06 -1.1255911713355D-06
   266  2.6500000000000D+00 -1.1537289908138D-05  7.2281330746093D-07
   267  2.6600000000000D+00 -1.2319108302941D-05 -1.0093149604445D-06
   268  2.6700000000000D+00 -3.8167349082796D-06 -7.1730635558389D-07
   269  2.6800000000000D+00  2.0086161625274D-06 -7.5867448106659D-07
   270  2.6900000000000D+00  2.9580735518830D-06 -9.3760800762380D-07
   271  2.7000000000000D+00  1.4411672566641D-06 -3.8377362262733D-07
   272  2.7100000000000D+00 -1.4730580793047D-07  2.7593964333568D-07
   273  2.7200000000000D+00 -3.1752898609079D-07  5.9480910088752D-07
   274  2.7300000000000D+00 -2.1544179613645D-07  4.0357493856286D-07
   275  2.7400000000000D+00  0.0000000000000D+00  0.0000000000000D+00
   276  2.7500000000000D+00  0.0000000000000D+00  0.0000000000000D+00
   277  2.7600000000000D+00  0.0000000000000D+00  0.0000000000000D+00
   278  2.7700000000000D+00  0.0000000000000D+00  0.0000000000000D+00
   279  2.7800000000000D+00  0.0000000000000D+00  0.0000000000000D+00
   280  2.7900000000000D+00  0.0000000000000D+00  0.0000000000000D+00
   281  2.8000000000000D+00  0.0000000000000D+00  0.0000000000000D+00
   282  2.8100000000000D+00  0.0000000000000D+00  0.0000000000000D+00
   283  2.8200000000000D+00  0.0000000000000D+00  0.0000000000000D+00
   284  2.8300000000000D+00  0.0000000000000D+00  0.0000000000000D+00
   285  2.8400000000000D+00  0.0000000000000D+00  0.0000000000000D+00
   286  2.8500000000000D+00  0.0000000000000D+00  0.0000000000000D+00
   287  2.8600000000000D+00  0.0000000000000D+00  0.0000000000000D+00
   288  2.8700000000000D+00  0.0000000000000D+00  0.0000000000000D+00
   289  2.8800000000000D+00  0.0000000000000D+00  0.0000000000000D+00
   290  2.8900000000000D+00  0.0000000000000D+00  0.0000000000000D+00
   291  2.9000000000000D+00  0.0000000000000D+00  0.0000000000000D+00
   292  2.9100000000000D+00  0.0000000000000D+00  0.0000000000000D+00
   293  2.9200000000000D+00  0.0000000000000D+00  0.0000000000000D+00
   294  2.9300000000000D+00  0.0000000000000D+00  0.0000000000000D+00
   295  2.9400000000000D+00  0.0000000000000D+00  0.0000000000000D+00
   296  2.9500000000000D+00  0.0000000000000D+00  0.0000000000000D+00
   297  2.9600000000000D+00  0.0000000000000D+00  0.0000000000000D+00
   298  2.9700000000000D+00  0.0000000000000D+00  0.0000000000000D+00
   299  2.9800000000000D+00  0.0000000000000D+00  0.0000000000000D+00
   300  2.9900000000000D+00  0.0000000000000D+00  0.0000000000000D+00
   301  3.0000000000000D+00  0.0000000000000D+00  0.0000000000000D+00
   302  3.0100000000000D+00  0.0000000000000D+00  0.0000000000000D+00
   303  3.0200000000000D+00  0.0000000000000D+00  0.0000000000000D+00
   304  3.0300000000000D+00  0.0000000000000D+00  0.0000000000000D+00
   305  3.0400000000000D+00  0.0000000000000D+00  0.0000000000000D+00
   306  3.0500000000000D+00  0.0000000000000D+00  0.0000000000000D+00
   307  3.0600000000000D+00  0.0000000000000D+00  0.0000000000000D+00
   308  3.0700000000000D+00  0.0000000000000D+00  0.0000000000000D+00
   309  3.0800000000000D+00  0.0000000000000D+00  0.0000000000000D+00
   310  3.0900000000000D+00  0.0000000000000D+00  0.0000000000000D+00
   311  3.1000000000000D+00  0.0000000000000D+00  0.0000000000000D+00
   312  3.1100000000000D+00  0.0000000000000D+00  0.0000000000000D+00
   313  3.1200000000000D+00  0.0000000000000D+00  0.0000000000000D+00
   314  3.1300000000000D+00  0.0000000000000D+00  0.0000000000000D+00
   315  3.1400000000000D+00  0.0000000000000D+00  0.0000000000000D+00
   316  3.1500000000000D+00  0.0000000000000D+00  0.0000000000000D+00
   317  3.1600000000000D+00  0.0000000000000D+00  0.0000000000000D+00
   318  3.1700000000000D+00  0.0000000000000D+00  0.0000000000000D+00
   319  3.1800000000000D+00  0.0000000000000D+00  0.0000000000000D+00
   320  3.1900000000000D+00  0.0000000000000D+00  0.0000000000000D+00
   321  3.2000000000000D+00  0.0000000000000D+00  0.0000000000000D+00
   322  3.2100000000000D+00  0.0000000000000D+00  0.0000000000000D+00
   323  3.2200000000000D+00  0.0000000000000D+00  0.0000000000000D+00
   324  3.2300000000000D+00  0.0000000000000D+00  0.0000000000000D+00
   325  3.2400000000000D+00  0.0000000000000D+00  0.0000000000000D+00
   326  3.2500000000000D+00  0.0000000000000D+00  0.0000000000000D+00
   327  3.2600000000000D+00  0.0000000000000D+00  0.0000000000000D+00
   328  3.2700000000000D+00  0.0000000000000D+00  0.0000000000000D+00
   329  3.2800000000000D+00  0.0000000000000D+00  0.0000000000000D+00
   330  3.2900000000000D+00  0.0000000000000D+00  0.0000000000000D+00
   331  3.3000000000000D+00  0.0000000000000D+00  0.0000000000000D+00
   332  3.3100000000000D+00  0.0000000000000D+00  0.0000000000000D+00
   333  3.3200000000000D+00  0.0000000000000D+00  0.0000000000000D+00
   334  3.3300000000000D+00  0.0000000000000D+00  0.0000000000000D+00
   335  3.3400000000000D+00  0.0000000000000D+00  0.0000000000000D+00
   336  3.3500000000000D+00  0.0000000000000D+00  0.0000000000000D+00
   337  3.3600000000000D+00  0.0000000000000D+00  0.0000000000000D+00
   338  3.3700000000000D+00  0.0000000000000D+00  0.0000000000000D+00
   339  3.3800000000000D+00  0.0000000000000D+00  0.0000000000000D+00
   340  3.3900000000000D+00  0.0000000000000D+00  0.0000000000000D+00
   341  3.4000000000000D+00  0.0000000000000D+00  0.0000000000000D+00
   342  3.4100000000000D+00  0.0000000000000D+00  0.0000000000000D+00
   343  3.4200000000000D+00  0.0000000000000D+00  0.0000000000000D+00
   344  3.4300000000000D+00  0.0000000000000D+00  0.0000000000000D+00
   345  3.4400000000000D+00  0.0000000000000D+00  0.0000000000000D+00
   346  3.4500000000000D+00  0.0000000000000D+00  0.0000000000000D+00
   347  3.4600000000000D+00  0.0000000000000D+00  0.0000000000000D+00
   348  3.4700000000000D+00  0.0000000000000D+00  0.0000000000000D+00
   349  3.4800000000000D+00  0.0000000000000D+00  0.0000000000000D+00
   350  3.4900000000000D+00  0.0000000000000D+00  0.0000000000000D+00
   351  3.5000000000000D+00  0.0000000000000D+00  0.0000000000000D+00
   352  3.5100000000000D+00  0.0000000000000D+00  0.0000000000000D+00
   353  3.5200000000000D+00  0.0000000000000D+00  0.0000000000000D+00
   354  3.5300000000000D+00  0.0000000000000D+00  0.0000000000000D+00
   355  3.5400000000000D+00  0.0000000000000D+00  0.0000000000000D+00
   356  3.5500000000000D+00  0.0000000000000D+00  0.0000000000000D+00
   357  3.5600000000000D+00  0.0000000000000D+00  0.0000000000000D+00
   358  3.5700000000000D+00  0.0000000000000D+00  0.0000000000000D+00
   359  3.5800000000000D+00  0.0000000000000D+00  0.0000000000000D+00
   360  3.5900000000000D+00  0.0000000000000D+00  0.0000000000000D+00
   361  3.6000000000000D+00  0.0000000000000D+00  0.0000000000000D+00
   362  3.6100000000000D+00  0.0000000000000D+00  0.0000000000000D+00
   363  3.6200000000000D+00  0.0000000000000D+00  0.0000000000000D+00
   364  3.6300000000000D+00  0.0000000000000D+00  0.0000000000000D+00
   365  3.6400000000000D+00  0.0000000000000D+00  0.0000000000000D+00
   366  3.6500000000000D+00  0.0000000000000D+00  0.0000000000000D+00
   367  3.6600000000000D+00  0.0000000000000D+00  0.0000000000000D+00
   368  3.6700000000000D+00  0.0000000000000D+00  0.0000000000000D+00
   369  3.6800000000000D+00  0.0000000000000D+00  0.0000000000000D+00
   370  3.6900000000000D+00  0.0000000000000D+00  0.0000000000000D+00
   371  3.7000000000000D+00  0.0000000000000D+00  0.0000000000000D+00
   372  3.7100000000000D+00  0.0000000000000D+00  0.0000000000000D+00
   373  3.7200000000000D+00  0.0000000000000D+00  0.0000000000000D+00
   374  3.7300000000000D+00  0.0000000000000D+00  0.0000000000000D+00
   375  3.7400000000000D+00  0.0000000000000D+00  0.0000000000000D+00
   376  3.7500000000000D+00  0.0000000000000D+00  0.0000000000000D+00
   377  3.7600000000000D+00  0.0000000000000D+00  0.0000000000000D+00
   378  3.7700000000000D+00  0.0000000000000D+00  0.0000000000000D+00
   379  3.7800000000000D+00  0.0000000000000D+00  0.0000000000000D+00
   380  3.7900000000000D+00  0.0000000000000D+00  0.0000000000000D+00
   381  3.8000000000000D+00  0.0000000000000D+00  0.0000000000000D+00
   382  3.8100000000000D+00  0.0000000000000D+00  0.0000000000000D+00
   383  3.8200000000000D+00  0.0000000000000D+00  0.0000000000000D+00
   384  3.8300000000000D+00  0.0000000000000D+00  0.0000000000000D+00
   385  3.8400000000000D+00  0.0000000000000D+00  0.0000000000000D+00
   386  3.8500000000000D+00  0.0000000000000D+00  0.0000000000000D+00
   387  3.8600000000000D+00  0.0000000000000D+00  0.0000000000000D+00
   388  3.8700000000000D+00  0.0000000000000D+00  0.0000000000000D+00
   389  3.8800000000000D+00  0.0000000000000D+00  0.0000000000000D+00
   390  3.8900000000000D+00  0.0000000000000D+00  0.0000000000000D+00
   391  3.9000000000000D+00  0.0000000000000D+00  0.0000000000000D+00
   392  3.9100000000000D+00  0.0000000000000D+00  0.0000000000000D+00
   393  3.9200000000000D+00  0.0000000000000D+00  0.0000000000000D+00
   394  3.9300000000000D+00  0.0000000000000D+00  0.0000000000000D+00
   395  3.9400000000000D+00  0.0000000000000D+00  0.0000000000000D+00
   396  3.9500000000000D+00  0.0000000000000D+00  0.0000000000000D+00
   397  3.9600000000000D+00  0.0000000000000D+00  0.0000000000000D+00
   398  3.9700000000000D+00  0.0000000000000D+00  0.0000000000000D+00
   399  3.9800000000000D+00  0.0000000000000D+00  0.0000000000000D+00
   400  3.9900000000000D+00  0.0000000000000D+00  0.0000000000000D+00
   401  4.0000000000000D+00  0.0000000000000D+00  0.0000000000000D+00
   402  4.0100000000000D+00  0.0000000000000D+00  0.0000000000000D+00
   403  4.0200000000000D+00  0.0000000000000D+00  0.0000000000000D+00
   404  4.0300000000000D+00  0.0000000000000D+00  0.0000000000000D+00
   405  4.0400000000000D+00  0.0000000000000D+00  0.0000000000000D+00
   406  4.0500000000000D+00  0.0000000000000D+00  0.0000000000000D+00
   407  4.0600000000000D+00  0.0000000000000D+00  0.0000000000000D+00
   408  4.0700000000000D+00  0.0000000000000D+00  0.0000000000000D+00
   409  4.0800000000000D+00  0.0000000000000D+00  0.0000000000000D+00
   410  4.0900000000000D+00  0.0000000000000D+00  0.0000000000000D+00
   411  4.1000000000000D+00  0.0000000000000D+00  0.0000000000000D+00
   412  4.1100000000000D+00  0.0000000000000D+00  0.0000000000000D+00
   413  4.1200000000000D+00  0.0000000000000D+00  0.0000000000000D+00
   414  4.1300000000000D+00  0.0000000000000D+00  0.0000000000000D+00
   415  4.1400000000000D+00  0.0000000000000D+00  0.0000000000000D+00
   416  4.1500000000000D+00  0.0000000000000D+00  0.0000000000000D+00
   417  4.1600000000000D+00  0.0000000000000D+00  0.0000000000000D+00
   418  4.1700000000000D+00  0.0000000000000D+00  0.0000000000000D+00
   419  4.1800000000000D+00  0.0000000000000D+00  0.0000000000000D+00
   420  4.1900000000000D+00  0.0000000000000D+00  0.0000000000000D+00
   421  4.2000000000000D+00  0.0000000000000D+00  0.0000000000000D+00
   422  4.2100000000000D+00  0.0000000000000D+00  0.0000000000000D+00