V     ONCVPSP-3.3.0  r_core=   1.31479   1.31479   1.66904
     23.0000     13.0000      220117    zatom,zion,pspd
     8      11   2     4   600     0    pspcod,pspxc,lmax,lloc,mmax,r2well
  5.99000000  0.00000000  0.00000000    rchrg fchrg qchrg
     2     2     2     0     0    nproj
     1     1           extension_switch
   0                         1.1890527391943D+01  1.4037997346286D+00
     1  0.0000000000000D+00 -1.6513446166044D-09  5.4770367130530D-09
     2  1.0000000000000D-02  9.1241362071950D-02 -4.4667636865661D-02
     3  2.0000000000000D-02  1.8218120284268D-01 -8.8889535000541D-02
     4  3.0000000000000D-02  2.7251999350182D-01 -1.3222516151534D-01
     5  4.0000000000000D-02  3.6196216454788D-01 -1.7424431284827D-01
     6  5.0000000000000D-02  4.5021802169174D-01 -2.1453207497074D-01
     7  6.0000000000000D-02  5.3700558645972D-01 -2.5269354222451D-01
     8  7.0000000000000D-02  6.2205233837409D-01 -2.8835822089491D-01
     9  8.0000000000000D-02  7.0509683724076D-01 -3.2118404910226D-01
    10  9.0000000000000D-02  7.8589020608311D-01 -3.5086097125895D-01
    11  1.0000000000000D-01  8.6419745759397D-01 -3.7711401307872D-01
    12  1.1000000000000D-01  9.3979864959320D-01 -3.9970581180208D-01
    13  1.2000000000000D-01  1.0124898578305D+00 -4.1843856576546D-01
    14  1.3000000000000D-01  1.0820839575124D+00 -4.3315537752915D-01
    15  1.4000000000000D-01  1.1484112081054D+00 -4.4374097531071D-01
    16  1.5000000000000D-01  1.2113196392185D+00 -4.5012180826471D-01
    17  1.6000000000000D-01  1.2706752386406D+00 -4.5226552201565D-01
    18  1.7000000000000D-01  1.3263619468440D+00 -4.5017983159728D-01
    19  1.8000000000000D-01  1.3782814654051D+00 -4.4391081938959D-01
    20  1.9000000000000D-01  1.4263528897891D+00 -4.3354069558835D-01
    21  2.0000000000000D-01  1.4705121797313D+00 -4.1918506801529D-01
    22  2.1000000000000D-01  1.5107114829876D+00 -4.0098977651306D-01
    23  2.2000000000000D-01  1.5469183304634D+00 -3.7912735461691D-01
    24  2.3000000000000D-01  1.5791147226332D+00 -3.5379318751862D-01
    25  2.4000000000000D-01  1.6072961286895D+00 -3.2520144042151D-01
    26  2.5000000000000D-01  1.6314704209864D+00 -2.9358083513491D-01
    27  2.6000000000000D-01  1.6516567680495D+00 -2.5917035509769D-01
    28  2.7000000000000D-01  1.6678845096895D+00 -2.2221495990865D-01
    29  2.8000000000000D-01  1.6801920375883D+00 -1.8296138985328D-01
    30  2.9000000000000D-01  1.6886257041085D+00 -1.4165413885518D-01
    31  3.0000000000000D-01  1.6932387810397D+00 -9.8531670777572D-02
    32  3.1000000000000D-01  1.6940904885353D+00 -5.3822949110409D-02
    33  3.2000000000000D-01  1.6912451126535D+00 -7.7443438826599D-03
    34  3.3000000000000D-01  1.6847712277177D+00  3.9503027758096D-02
    35  3.4000000000000D-01  1.6747410371992D+00  8.7735479328418D-02
    36  3.5000000000000D-01  1.6612298440367D+00  1.3678841258507D-01
    37  3.6000000000000D-01  1.6443156583077D+00  1.8651742648865D-01
    38  3.7000000000000D-01  1.6240789469889D+00  2.3679885989868D-01
    39  3.8000000000000D-01  1.6006025272678D+00  2.8752976148421D-01
    40  3.9000000000000D-01  1.5739716015392D+00  3.3862729167000D-01
    41  4.0000000000000D-01  1.5442739289088D+00  3.9002757275848D-01
    42  4.1000000000000D-01  1.5116001247938D+00  4.4168401447031D-01
    43  4.2000000000000D-01  1.4760440771148D+00  4.9356515282318D-01
    44  4.3000000000000D-01  1.4377034646793D+00  5.4565205032038D-01
    45  4.4000000000000D-01  1.3966803607199D+00  5.9793531465736D-01
    46  4.5000000000000D-01  1.3530819022223D+00  6.5041180139858D-01
    47  4.6000000000000D-01  1.3070210037066D+00  7.0308107316457D-01
    48  4.7000000000000D-01  1.2586170925573D+00  7.5594169366007D-01
    49  4.8000000000000D-01  1.2079968418614D+00  8.0898743924432D-01
    50  4.9000000000000D-01  1.1552948760439D+00  8.6220351359831D-01
    51  5.0000000000000D-01  1.1006544243989D+00  9.1556285231055D-01
    52  5.1000000000000D-01  1.0442278979265D+00  9.6902260383819D-01
    53  5.2000000000000D-01  9.8617736568207D-01  1.0225208712888D+00
    54  5.3000000000000D-01  9.2667490814453D-01  1.0759737958311D+00
    55  5.4000000000000D-01  8.6590282687418D-01  1.1292730573134D+00
    56  5.5000000000000D-01  8.0405369195245D-01  1.1822838609312D+00
    57  5.6000000000000D-01  7.4133021132824D-01  1.2348434706450D+00
    58  5.7000000000000D-01  6.7794490921245D-01  1.2867603406038D+00
    59  5.8000000000000D-01  6.1411960399212D-01  1.3378138853039D+00
    60  5.9000000000000D-01  5.5008467975821D-01  1.3877549176641D+00
    61  6.0000000000000D-01  4.8607814934615D-01  1.4363067719884D+00
    62  6.1000000000000D-01  4.2234451076870D-01  1.4831671159280D+00
    63  6.2000000000000D-01  3.5913340294638D-01  1.5280104424753D+00
    64  6.3000000000000D-01  2.9669807068673D-01  1.5704912197947D+00
    65  6.4000000000000D-01  2.3529365283793D-01  1.6102476636212D+00
    66  6.5000000000000D-01  1.7517531134896D-01  1.6469060843524D+00
    67  6.6000000000000D-01  1.1659622259208D-01  1.6800857488647D+00
    68  6.7000000000000D-01  5.9805455612099D-02  1.7094041859379D+00
    69  6.8000000000000D-01  5.0457649268086D-03  1.7344828540865D+00
    70  6.9000000000000D-01 -4.7448671935846D-02  1.7549530817311D+00
    71  7.0000000000000D-01 -9.7454539901819D-02  1.7704621822854D+00
    72  7.1000000000000D-01 -1.4476166098427D-01  1.7806796409606D+00
    73  7.2000000000000D-01 -1.8917522323903D-01  1.7853032660658D+00
    74  7.3000000000000D-01 -2.3051792875877D-01  1.7840651953767D+00
    75  7.4000000000000D-01 -2.6863202559211D-01  1.7767376478771D+00
    76  7.5000000000000D-01 -3.0338118925027D-01  1.7631383128361D+00
    77  7.6000000000000D-01 -3.3465222084909D-01  1.7431352717939D+00
    78  7.7000000000000D-01 -3.6235653091820D-01  1.7166513545633D+00
    79  7.8000000000000D-01 -3.8643138045935D-01  1.6836678377169D+00
    80  7.9000000000000D-01 -4.0684085392820D-01  1.6442274031498D+00
    81  8.0000000000000D-01 -4.2357654240746D-01  1.5984362850594D+00
    82  8.1000000000000D-01 -4.3665791926153D-01  1.5464655458477D+00
    83  8.2000000000000D-01 -4.4613239497435D-01  1.4885514348979D+00
    84  8.3000000000000D-01 -4.5207504259075D-01  1.4249947986574D+00
    85  8.4000000000000D-01 -4.5458799013417D-01  1.3561595257355D+00
    86  8.5000000000000D-01 -4.5379948147959D-01  1.2824700265505D+00
    87  8.6000000000000D-01 -4.4986261233369D-01  1.2044077631591D+00
    88  8.7000000000000D-01 -4.4295375312757D-01  1.1225068609967D+00
    89  8.8000000000000D-01 -4.3327067567188D-01  1.0373488500696D+00
    90  8.9000000000000D-01 -4.2103040527220D-01  9.4955659838680D-01
    91  9.0000000000000D-01 -4.0646682456808D-01  8.5978751482868D-01
    92  9.1000000000000D-01 -3.8982805956023D-01  7.6872611195367D-01
    93  9.2000000000000D-01 -3.7137368205029D-01  6.7707603120652D-01
    94  9.3000000000000D-01 -3.5137176596557D-01  5.8555164337197D-01
    95  9.4000000000000D-01 -3.3009583771851D-01  4.9486934573680D-01
    96  9.5000000000000D-01 -3.0782176279215D-01  4.0573868406263D-01
    97  9.6000000000000D-01 -2.8482461212434D-01  3.1885343205286D-01
    98  9.7000000000000D-01 -2.6137555254830D-01  2.3488276340355D-01
    99  9.8000000000000D-01 -2.3773880549022D-01  1.5446265160267D-01
   100  9.9000000000000D-01 -2.1416871735767D-01  7.8187630490640D-02
   101  1.0000000000000D+00 -1.9090698355315D-01  6.6030441337146D-03
   102  1.0100000000000D+00 -1.6818006585705D-01 -5.9802092075117D-02
   103  1.0200000000000D+00 -1.4619683995857D-01 -1.2060150625721D-01
   104  1.0300000000000D+00 -1.2514650654676D-01 -1.7543725836932D-01
   105  1.0400000000000D+00 -1.0519679516187D-01 -2.2402441256830D-01
   106  1.0500000000000D+00 -8.6492485373990D-02 -2.6615471856116D-01
   107  1.0600000000000D+00 -6.9154264866863D-02 -3.0169924239809D-01
   108  1.0700000000000D+00 -5.3277938478702D-02 -3.3060990438228D-01
   109  1.0800000000000D+00 -3.8933996516433D-02 -3.5291989966856D-01
   110  1.0900000000000D+00 -2.6167545157722D-02 -3.6874299430767D-01
   111  1.1000000000000D+00 -1.4998595083969D-02 -3.7827171035603D-01
   112  1.1100000000000D+00 -5.4226991400127D-03 -3.8177443040754D-01
   113  1.1200000000000D+00  2.5880766356593D-03 -3.7959147210773D-01
   114  1.1300000000000D+00  9.0838689088729D-03 -3.7213019775437D-01
   115  1.1400000000000D+00  1.4135446657061D-02 -3.5985924440410D-01
   116  1.1500000000000D+00  1.7832385492206D-02 -3.4330197314828D-01
   117  1.1600000000000D+00  2.0281022559108D-02 -3.2302925142740D-01
   118  1.1700000000000D+00  2.1602232426002D-02 -2.9965169748661D-01
   119  1.1800000000000D+00  2.1929057224591D-02 -2.7381148640493D-01
   120  1.1900000000000D+00  2.1404279933428D-02 -2.4617402325541D-01
   121  1.2000000000000D+00  2.0177771997854D-02 -2.1741883267695D-01
   122  1.2100000000000D+00  1.8404484137805D-02 -1.8823286857164D-01
   123  1.2200000000000D+00  1.6240876916282D-02 -1.5929798393751D-01
   124  1.2300000000000D+00  1.3839789041674D-02 -1.3127258141565D-01
   125  1.2400000000000D+00  1.1345083964225D-02 -1.0477292419900D-01
   126  1.2500000000000D+00  8.8880818469287D-03 -8.0361222946682D-02
   127  1.2600000000000D+00  6.5854893836717D-03 -5.8539359483712D-02
   128  1.2700000000000D+00  4.5373753949944D-03 -3.9744151778465D-02
   129  1.2800000000000D+00  2.8244950379288D-03 -2.4335117742539D-02
   130  1.2900000000000D+00  1.4962572648146D-03 -1.2511439455620D-02
   131  1.3000000000000D+00  6.2472930227037D-04 -4.7166884881496D-03
   132  1.3100000000000D+00  2.2251764839750D-04 -1.0318944412457D-03
   133  1.3200000000000D+00  6.7356743470077D-05  1.9353284212355D-05
   134  1.3300000000000D+00  1.9264364112680D-06  8.7565791976691D-06
   135  1.3400000000000D+00 -4.9931280896107D-06 -3.9506454728065D-05
   136  1.3500000000000D+00  1.2466904319131D-06  4.0440745986497D-06
   137  1.3600000000000D+00  7.3776058025225D-07  3.0609870515860D-06
   138  1.3700000000000D+00 -3.8149526579435D-07  8.9673280888067D-07
   139  1.3800000000000D+00  0.0000000000000D+00  0.0000000000000D+00
   140  1.3900000000000D+00  0.0000000000000D+00  0.0000000000000D+00
   141  1.4000000000000D+00  0.0000000000000D+00  0.0000000000000D+00
   142  1.4100000000000D+00  0.0000000000000D+00  0.0000000000000D+00
   143  1.4200000000000D+00  0.0000000000000D+00  0.0000000000000D+00
   144  1.4300000000000D+00  0.0000000000000D+00  0.0000000000000D+00
   145  1.4400000000000D+00  0.0000000000000D+00  0.0000000000000D+00
   146  1.4500000000000D+00  0.0000000000000D+00  0.0000000000000D+00
   147  1.4600000000000D+00  0.0000000000000D+00  0.0000000000000D+00
   148  1.4700000000000D+00  0.0000000000000D+00  0.0000000000000D+00
   149  1.4800000000000D+00  0.0000000000000D+00  0.0000000000000D+00
   150  1.4900000000000D+00  0.0000000000000D+00  0.0000000000000D+00
   151  1.5000000000000D+00  0.0000000000000D+00  0.0000000000000D+00
   152  1.5100000000000D+00  0.0000000000000D+00  0.0000000000000D+00
   153  1.5200000000000D+00  0.0000000000000D+00  0.0000000000000D+00
   154  1.5300000000000D+00  0.0000000000000D+00  0.0000000000000D+00
   155  1.5400000000000D+00  0.0000000000000D+00  0.0000000000000D+00
   156  1.5500000000000D+00  0.0000000000000D+00  0.0000000000000D+00
   157  1.5600000000000D+00  0.0000000000000D+00  0.0000000000000D+00
   158  1.5700000000000D+00  0.0000000000000D+00  0.0000000000000D+00
   159  1.5800000000000D+00  0.0000000000000D+00  0.0000000000000D+00
   160  1.5900000000000D+00  0.0000000000000D+00  0.0000000000000D+00
   161  1.6000000000000D+00  0.0000000000000D+00  0.0000000000000D+00
   162  1.6100000000000D+00  0.0000000000000D+00  0.0000000000000D+00
   163  1.6200000000000D+00  0.0000000000000D+00  0.0000000000000D+00
   164  1.6300000000000D+00  0.0000000000000D+00  0.0000000000000D+00
   165  1.6400000000000D+00  0.0000000000000D+00  0.0000000000000D+00
   166  1.6500000000000D+00  0.0000000000000D+00  0.0000000000000D+00
   167  1.6600000000000D+00  0.0000000000000D+00  0.0000000000000D+00
   168  1.6700000000000D+00  0.0000000000000D+00  0.0000000000000D+00
   169  1.6800000000000D+00  0.0000000000000D+00  0.0000000000000D+00
   170  1.6900000000000D+00  0.0000000000000D+00  0.0000000000000D+00
   171  1.7000000000000D+00  0.0000000000000D+00  0.0000000000000D+00
   172  1.7100000000000D+00  0.0000000000000D+00  0.0000000000000D+00
   173  1.7200000000000D+00  0.0000000000000D+00  0.0000000000000D+00
   174  1.7300000000000D+00  0.0000000000000D+00  0.0000000000000D+00
   175  1.7400000000000D+00  0.0000000000000D+00  0.0000000000000D+00
   176  1.7500000000000D+00  0.0000000000000D+00  0.0000000000000D+00
   177  1.7600000000000D+00  0.0000000000000D+00  0.0000000000000D+00
   178  1.7700000000000D+00  0.0000000000000D+00  0.0000000000000D+00
   179  1.7800000000000D+00  0.0000000000000D+00  0.0000000000000D+00
   180  1.7900000000000D+00  0.0000000000000D+00  0.0000000000000D+00
   181  1.8000000000000D+00  0.0000000000000D+00  0.0000000000000D+00
   182  1.8100000000000D+00  0.0000000000000D+00  0.0000000000000D+00
   183  1.8200000000000D+00  0.0000000000000D+00  0.0000000000000D+00
   184  1.8300000000000D+00  0.0000000000000D+00  0.0000000000000D+00
   185  1.8400000000000D+00  0.0000000000000D+00  0.0000000000000D+00
   186  1.8500000000000D+00  0.0000000000000D+00  0.0000000000000D+00
   187  1.8600000000000D+00  0.0000000000000D+00  0.0000000000000D+00
   188  1.8700000000000D+00  0.0000000000000D+00  0.0000000000000D+00
   189  1.8800000000000D+00  0.0000000000000D+00  0.0000000000000D+00
   190  1.8900000000000D+00  0.0000000000000D+00  0.0000000000000D+00
   191  1.9000000000000D+00  0.0000000000000D+00  0.0000000000000D+00
   192  1.9100000000000D+00  0.0000000000000D+00  0.0000000000000D+00
   193  1.9200000000000D+00  0.0000000000000D+00  0.0000000000000D+00
   194  1.9300000000000D+00  0.0000000000000D+00  0.0000000000000D+00
   195  1.9400000000000D+00  0.0000000000000D+00  0.0000000000000D+00
   196  1.9500000000000D+00  0.0000000000000D+00  0.0000000000000D+00
   197  1.9600000000000D+00  0.0000000000000D+00  0.0000000000000D+00
   198  1.9700000000000D+00  0.0000000000000D+00  0.0000000000000D+00
   199  1.9800000000000D+00  0.0000000000000D+00  0.0000000000000D+00
   200  1.9900000000000D+00  0.0000000000000D+00  0.0000000000000D+00
   201  2.0000000000000D+00  0.0000000000000D+00  0.0000000000000D+00
   202  2.0100000000000D+00  0.0000000000000D+00  0.0000000000000D+00
   203  2.0200000000000D+00  0.0000000000000D+00  0.0000000000000D+00
   204  2.0300000000000D+00  0.0000000000000D+00  0.0000000000000D+00
   205  2.0400000000000D+00  0.0000000000000D+00  0.0000000000000D+00
   206  2.0500000000000D+00  0.0000000000000D+00  0.0000000000000D+00
   207  2.0600000000000D+00  0.0000000000000D+00  0.0000000000000D+00
   208  2.0700000000000D+00  0.0000000000000D+00  0.0000000000000D+00
   209  2.0800000000000D+00  0.0000000000000D+00  0.0000000000000D+00
   210  2.0900000000000D+00  0.0000000000000D+00  0.0000000000000D+00
   211  2.1000000000000D+00  0.0000000000000D+00  0.0000000000000D+00
   212  2.1100000000000D+00  0.0000000000000D+00  0.0000000000000D+00
   213  2.1200000000000D+00  0.0000000000000D+00  0.0000000000000D+00
   214  2.1300000000000D+00  0.0000000000000D+00  0.0000000000000D+00
   215  2.1400000000000D+00  0.0000000000000D+00  0.0000000000000D+00
   216  2.1500000000000D+00  0.0000000000000D+00  0.0000000000000D+00
   217  2.1600000000000D+00  0.0000000000000D+00  0.0000000000000D+00
   218  2.1700000000000D+00  0.0000000000000D+00  0.0000000000000D+00
   219  2.1800000000000D+00  0.0000000000000D+00  0.0000000000000D+00
   220  2.1900000000000D+00  0.0000000000000D+00  0.0000000000000D+00
   221  2.2000000000000D+00  0.0000000000000D+00  0.0000000000000D+00
   222  2.2100000000000D+00  0.0000000000000D+00  0.0000000000000D+00
   223  2.2200000000000D+00  0.0000000000000D+00  0.0000000000000D+00
   224  2.2300000000000D+00  0.0000000000000D+00  0.0000000000000D+00
   225  2.2400000000000D+00  0.0000000000000D+00  0.0000000000000D+00
   226  2.2500000000000D+00  0.0000000000000D+00  0.0000000000000D+00
   227  2.2600000000000D+00  0.0000000000000D+00  0.0000000000000D+00
   228  2.2700000000000D+00  0.0000000000000D+00  0.0000000000000D+00
   229  2.2800000000000D+00  0.0000000000000D+00  0.0000000000000D+00
   230  2.2900000000000D+00  0.0000000000000D+00  0.0000000000000D+00
   231  2.3000000000000D+00  0.0000000000000D+00  0.0000000000000D+00
   232  2.3100000000000D+00  0.0000000000000D+00  0.0000000000000D+00
   233  2.3200000000000D+00  0.0000000000000D+00  0.0000000000000D+00
   234  2.3300000000000D+00  0.0000000000000D+00  0.0000000000000D+00
   235  2.3400000000000D+00  0.0000000000000D+00  0.0000000000000D+00
   236  2.3500000000000D+00  0.0000000000000D+00  0.0000000000000D+00
   237  2.3600000000000D+00  0.0000000000000D+00  0.0000000000000D+00
   238  2.3700000000000D+00  0.0000000000000D+00  0.0000000000000D+00
   239  2.3800000000000D+00  0.0000000000000D+00  0.0000000000000D+00
   240  2.3900000000000D+00  0.0000000000000D+00  0.0000000000000D+00
   241  2.4000000000000D+00  0.0000000000000D+00  0.0000000000000D+00
   242  2.4100000000000D+00  0.0000000000000D+00  0.0000000000000D+00
   243  2.4200000000000D+00  0.0000000000000D+00  0.0000000000000D+00
   244  2.4300000000000D+00  0.0000000000000D+00  0.0000000000000D+00
   245  2.4400000000000D+00  0.0000000000000D+00  0.0000000000000D+00
   246  2.4500000000000D+00  0.0000000000000D+00  0.0000000000000D+00
   247  2.4600000000000D+00  0.0000000000000D+00  0.0000000000000D+00
   248  2.4700000000000D+00  0.0000000000000D+00  0.0000000000000D+00
   249  2.4800000000000D+00  0.0000000000000D+00  0.0000000000000D+00
   250  2.4900000000000D+00  0.0000000000000D+00  0.0000000000000D+00
   251  2.5000000000000D+00  0.0000000000000D+00  0.0000000000000D+00
   252  2.5100000000000D+00  0.0000000000000D+00  0.0000000000000D+00
   253  2.5200000000000D+00  0.0000000000000D+00  0.0000000000000D+00
   254  2.5300000000000D+00  0.0000000000000D+00  0.0000000000000D+00
   255  2.5400000000000D+00  0.0000000000000D+00  0.0000000000000D+00
   256  2.5500000000000D+00  0.0000000000000D+00  0.0000000000000D+00
   257  2.5600000000000D+00  0.0000000000000D+00  0.0000000000000D+00
   258  2.5700000000000D+00  0.0000000000000D+00  0.0000000000000D+00
   259  2.5800000000000D+00  0.0000000000000D+00  0.0000000000000D+00
   260  2.5900000000000D+00  0.0000000000000D+00  0.0000000000000D+00
   261  2.6000000000000D+00  0.0000000000000D+00  0.0000000000000D+00
   262  2.6100000000000D+00  0.0000000000000D+00  0.0000000000000D+00
   263  2.6200000000000D+00  0.0000000000000D+00  0.0000000000000D+00
   264  2.6300000000000D+00  0.0000000000000D+00  0.0000000000000D+00
   265  2.6400000000000D+00  0.0000000000000D+00  0.0000000000000D+00
   266  2.6500000000000D+00  0.0000000000000D+00  0.0000000000000D+00
   267  2.6600000000000D+00  0.0000000000000D+00  0.0000000000000D+00
   268  2.6700000000000D+00  0.0000000000000D+00  0.0000000000000D+00
   269  2.6800000000000D+00  0.0000000000000D+00  0.0000000000000D+00
   270  2.6900000000000D+00  0.0000000000000D+00  0.0000000000000D+00
   271  2.7000000000000D+00  0.0000000000000D+00  0.0000000000000D+00
   272  2.7100000000000D+00  0.0000000000000D+00  0.0000000000000D+00
   273  2.7200000000000D+00  0.0000000000000D+00  0.0000000000000D+00
   274  2.7300000000000D+00  0.0000000000000D+00  0.0000000000000D+00
   275  2.7400000000000D+00  0.0000000000000D+00  0.0000000000000D+00
   276  2.7500000000000D+00  0.0000000000000D+00  0.0000000000000D+00
   277  2.7600000000000D+00  0.0000000000000D+00  0.0000000000000D+00
   278  2.7700000000000D+00  0.0000000000000D+00  0.0000000000000D+00
   279  2.7800000000000D+00  0.0000000000000D+00  0.0000000000000D+00
   280  2.7900000000000D+00  0.0000000000000D+00  0.0000000000000D+00
   281  2.8000000000000D+00  0.0000000000000D+00  0.0000000000000D+00
   282  2.8100000000000D+00  0.0000000000000D+00  0.0000000000000D+00
   283  2.8200000000000D+00  0.0000000000000D+00  0.0000000000000D+00
   284  2.8300000000000D+00  0.0000000000000D+00  0.0000000000000D+00
   285  2.8400000000000D+00  0.0000000000000D+00  0.0000000000000D+00
   286  2.8500000000000D+00  0.0000000000000D+00  0.0000000000000D+00
   287  2.8600000000000D+00  0.0000000000000D+00  0.0000000000000D+00
   288  2.8700000000000D+00  0.0000000000000D+00  0.0000000000000D+00
   289  2.8800000000000D+00  0.0000000000000D+00  0.0000000000000D+00
   290  2.8900000000000D+00  0.0000000000000D+00  0.0000000000000D+00
   291  2.9000000000000D+00  0.0000000000000D+00  0.0000000000000D+00
   292  2.9100000000000D+00  0.0000000000000D+00  0.0000000000000D+00
   293  2.9200000000000D+00  0.0000000000000D+00  0.0000000000000D+00
   294  2.9300000000000D+00  0.0000000000000D+00  0.0000000000000D+00
   295  2.9400000000000D+00  0.0000000000000D+00  0.0000000000000D+00
   296  2.9500000000000D+00  0.0000000000000D+00  0.0000000000000D+00
   297  2.9600000000000D+00  0.0000000000000D+00  0.0000000000000D+00
   298  2.9700000000000D+00  0.0000000000000D+00  0.0000000000000D+00
   299  2.9800000000000D+00  0.0000000000000D+00  0.0000000000000D+00
   300  2.9900000000000D+00  0.0000000000000D+00  0.0000000000000D+00
   301  3.0000000000000D+00  0.0000000000000D+00  0.0000000000000D+00
   302  3.0100000000000D+00  0.0000000000000D+00  0.0000000000000D+00
   303  3.0200000000000D+00  0.0000000000000D+00  0.0000000000000D+00
   304  3.0300000000000D+00  0.0000000000000D+00  0.0000000000000D+00
   305  3.0400000000000D+00  0.0000000000000D+00  0.0000000000000D+00
   306  3.0500000000000D+00  0.0000000000000D+00  0.0000000000000D+00
   307  3.0600000000000D+00  0.0000000000000D+00  0.0000000000000D+00
   308  3.0700000000000D+00  0.0000000000000D+00  0.0000000000000D+00
   309  3.0800000000000D+00  0.0000000000000D+00  0.0000000000000D+00
   310  3.0900000000000D+00  0.0000000000000D+00  0.0000000000000D+00
   311  3.1000000000000D+00  0.0000000000000D+00  0.0000000000000D+00
   312  3.1100000000000D+00  0.0000000000000D+00  0.0000000000000D+00
   313  3.1200000000000D+00  0.0000000000000D+00  0.0000000000000D+00
   314  3.1300000000000D+00  0.0000000000000D+00  0.0000000000000D+00
   315  3.1400000000000D+00  0.0000000000000D+00  0.0000000000000D+00
   316  3.1500000000000D+00  0.0000000000000D+00  0.0000000000000D+00
   317  3.1600000000000D+00  0.0000000000000D+00  0.0000000000000D+00
   318  3.1700000000000D+00  0.0000000000000D+00  0.0000000000000D+00
   319  3.1800000000000D+00  0.0000000000000D+00  0.0000000000000D+00
   320  3.1900000000000D+00  0.0000000000000D+00  0.0000000000000D+00
   321  3.2000000000000D+00  0.0000000000000D+00  0.0000000000000D+00
   322  3.2100000000000D+00  0.0000000000000D+00  0.0000000000000D+00
   323  3.2200000000000D+00  0.0000000000000D+00  0.0000000000000D+00
   324  3.2300000000000D+00  0.0000000000000D+00  0.0000000000000D+00
   325  3.2400000000000D+00  0.0000000000000D+00  0.0000000000000D+00
   326  3.2500000000000D+00  0.0000000000000D+00  0.0000000000000D+00
   327  3.2600000000000D+00  0.0000000000000D+00  0.0000000000000D+00
   328  3.2700000000000D+00  0.0000000000000D+00  0.0000000000000D+00
   329  3.2800000000000D+00  0.0000000000000D+00  0.0000000000000D+00
   330  3.2900000000000D+00  0.0000000000000D+00  0.0000000000000D+00
   331  3.3000000000000D+00  0.0000000000000D+00  0.0000000000000D+00
   332  3.3100000000000D+00  0.0000000000000D+00  0.0000000000000D+00
   333  3.3200000000000D+00  0.0000000000000D+00  0.0000000000000D+00
   334  3.3300000000000D+00  0.0000000000000D+00  0.0000000000000D+00
   335  3.3400000000000D+00  0.0000000000000D+00  0.0000000000000D+00
   336  3.3500000000000D+00  0.0000000000000D+00  0.0000000000000D+00
   337  3.3600000000000D+00  0.0000000000000D+00  0.0000000000000D+00
   338  3.3700000000000D+00  0.0000000000000D+00  0.0000000000000D+00
   339  3.3800000000000D+00  0.0000000000000D+00  0.0000000000000D+00
   340  3.3900000000000D+00  0.0000000000000D+00  0.0000000000000D+00
   341  3.4000000000000D+00  0.0000000000000D+00  0.0000000000000D+00
   342  3.4100000000000D+00  0.0000000000000D+00  0.0000000000000D+00
   343  3.4200000000000D+00  0.0000000000000D+00  0.0000000000000D+00
   344  3.4300000000000D+00  0.0000000000000D+00  0.0000000000000D+00
   345  3.4400000000000D+00  0.0000000000000D+00  0.0000000000000D+00
   346  3.4500000000000D+00  0.0000000000000D+00  0.0000000000000D+00
   347  3.4600000000000D+00  0.0000000000000D+00  0.0000000000000D+00
   348  3.4700000000000D+00  0.0000000000000D+00  0.0000000000000D+00
   349  3.4800000000000D+00  0.0000000000000D+00  0.0000000000000D+00
   350  3.4900000000000D+00  0.0000000000000D+00  0.0000000000000D+00
   351  3.5000000000000D+00  0.0000000000000D+00  0.0000000000000D+00
   352  3.5100000000000D+00  0.0000000000000D+00  0.0000000000000D+00
   353  3.5200000000000D+00  0.0000000000000D+00  0.0000000000000D+00
   354  3.5300000000000D+00  0.0000000000000D+00  0.0000000000000D+00
   355  3.5400000000000D+00  0.0000000000000D+00  0.0000000000000D+00
   356  3.5500000000000D+00  0.0000000000000D+00  0.0000000000000D+00
   357  3.5600000000000D+00  0.0000000000000D+00  0.0000000000000D+00
   358  3.5700000000000D+00  0.0000000000000D+00  0.0000000000000D+00
   359  3.5800000000000D+00  0.0000000000000D+00  0.0000000000000D+00
   360  3.5900000000000D+00  0.0000000000000D+00  0.0000000000000D+00
   361  3.6000000000000D+00  0.0000000000000D+00  0.0000000000000D+00
   362  3.6100000000000D+00  0.0000000000000D+00  0.0000000000000D+00
   363  3.6200000000000D+00  0.0000000000000D+00  0.0000000000000D+00
   364  3.6300000000000D+00  0.0000000000000D+00  0.0000000000000D+00
   365  3.6400000000000D+00  0.0000000000000D+00  0.0000000000000D+00
   366  3.6500000000000D+00  0.0000000000000D+00  0.0000000000000D+00
   367  3.6600000000000D+00  0.0000000000000D+00  0.0000000000000D+00
   368  3.6700000000000D+00  0.0000000000000D+00  0.0000000000000D+00
   369  3.6800000000000D+00  0.0000000000000D+00  0.0000000000000D+00
   370  3.6900000000000D+00  0.0000000000000D+00  0.0000000000000D+00
   371  3.7000000000000D+00  0.0000000000000D+00  0.0000000000000D+00
   372  3.7100000000000D+00  0.0000000000000D+00  0.0000000000000D+00
   373  3.7200000000000D+00  0.0000000000000D+00  0.0000000000000D+00
   374  3.7300000000000D+00  0.0000000000000D+00  0.0000000000000D+00
   375  3.7400000000000D+00  0.0000000000000D+00  0.0000000000000D+00
   376  3.7500000000000D+00  0.0000000000000D+00  0.0000000000000D+00
   377  3.7600000000000D+00  0.0000000000000D+00  0.0000000000000D+00
   378  3.7700000000000D+00  0.0000000000000D+00  0.0000000000000D+00
   379  3.7800000000000D+00  0.0000000000000D+00  0.0000000000000D+00
   380  3.7900000000000D+00  0.0000000000000D+00  0.0000000000000D+00
   381  3.8000000000000D+00  0.0000000000000D+00  0.0000000000000D+00
   382  3.8100000000000D+00  0.0000000000000D+00  0.0000000000000D+00
   383  3.8200000000000D+00  0.0000000000000D+00  0.0000000000000D+00
   384  3.8300000000000D+00  0.0000000000000D+00  0.0000000000000D+00
   385  3.8400000000000D+00  0.0000000000000D+00  0.0000000000000D+00
   386  3.8500000000000D+00  0.0000000000000D+00  0.0000000000000D+00
   387  3.8600000000000D+00  0.0000000000000D+00  0.0000000000000D+00
   388  3.8700000000000D+00  0.0000000000000D+00  0.0000000000000D+00
   389  3.8800000000000D+00  0.0000000000000D+00  0.0000000000000D+00
   390  3.8900000000000D+00  0.0000000000000D+00  0.0000000000000D+00
   391  3.9000000000000D+00  0.0000000000000D+00  0.0000000000000D+00
   392  3.9100000000000D+00  0.0000000000000D+00  0.0000000000000D+00
   393  3.9200000000000D+00  0.0000000000000D+00  0.0000000000000D+00
   394  3.9300000000000D+00  0.0000000000000D+00  0.0000000000000D+00
   395  3.9400000000000D+00  0.0000000000000D+00  0.0000000000000D+00
   396  3.9500000000000D+00  0.0000000000000D+00  0.0000000000000D+00
   397  3.9600000000000D+00  0.0000000000000D+00  0.0000000000000D+00
   398  3.9700000000000D+00  0.0000000000000D+00  0.0000000000000D+00
   399  3.9800000000000D+00  0.0000000000000D+00  0.0000000000000D+00
   400  3.9900000000000D+00  0.0000000000000D+00  0.0000000000000D+00
   401  4.0000000000000D+00  0.0000000000000D+00  0.0000000000000D+00
   402  4.0100000000000D+00  0.0000000000000D+00  0.0000000000000D+00
   403  4.0200000000000D+00  0.0000000000000D+00  0.0000000000000D+00
   404  4.0300000000000D+00  0.0000000000000D+00  0.0000000000000D+00
   405  4.0400000000000D+00  0.0000000000000D+00  0.0000000000000D+00
   406  4.0500000000000D+00  0.0000000000000D+00  0.0000000000000D+00
   407  4.0600000000000D+00  0.0000000000000D+00  0.0000000000000D+00
   408  4.0700000000000D+00  0.0000000000000D+00  0.0000000000000D+00
   409  4.0800000000000D+00  0.0000000000000D+00  0.0000000000000D+00
   410  4.0900000000000D+00  0.0000000000000D+00  0.0000000000000D+00
   411  4.1000000000000D+00  0.0000000000000D+00  0.0000000000000D+00
   412  4.1100000000000D+00  0.0000000000000D+00  0.0000000000000D+00
   413  4.1200000000000D+00  0.0000000000000D+00  0.0000000000000D+00
   414  4.1300000000000D+00  0.0000000000000D+00  0.0000000000000D+00
   415  4.1400000000000D+00  0.0000000000000D+00  0.0000000000000D+00
   416  4.1500000000000D+00  0.0000000000000D+00  0.0000000000000D+00
   417  4.1600000000000D+00  0.0000000000000D+00  0.0000000000000D+00
   418  4.1700000000000D+00  0.0000000000000D+00  0.0000000000000D+00
   419  4.1800000000000D+00  0.0000000000000D+00  0.0000000000000D+00
   420  4.1900000000000D+00  0.0000000000000D+00  0.0000000000000D+00
   421  4.2000000000000D+00  0.0000000000000D+00  0.0000000000000D+00
   422  4.2100000000000D+00  0.0000000000000D+00  0.0000000000000D+00