Gd    ONCVPSP-3.3.0  r_core=   1.81887   1.50284   1.65332   1.71356
     64.0000     18.0000      220117    zatom,zion,pspd
     8      11   3     4   600     0    pspcod,pspxc,lmax,lloc,mmax,r2well
  5.99000000  0.00000000  0.00000000    rchrg fchrg qchrg
     2     2     2     2     0    nproj
     1     1           extension_switch
   0                         8.8642073538141D+00  5.6424194895269D-01
     1  0.0000000000000D+00 -3.0132396577898D-11  2.5074825549254D-10
     2  1.0000000000000D-02  4.4491933468256D-02 -2.0113521460206D-02
     3  2.0000000000000D-02  8.8938164279850D-02 -4.0125231426709D-02
     4  3.0000000000000D-02  1.3329306600554D-01 -5.9934058913374D-02
     5  4.0000000000000D-02  1.7751116405529D-01 -7.9440407043314D-02
     6  5.0000000000000D-02  2.2154721006664D-01 -9.8546872902821D-02
     7  6.0000000000000D-02  2.6535625447701D-01 -1.1715894693320D-01
     8  7.0000000000000D-02  3.0889371671048D-01 -1.3518568533611D-01
     9  8.0000000000000D-02  3.5211545243941D-01 -1.5254034921865D-01
    10  9.0000000000000D-02  3.9497781741854D-01 -1.6914100451398D-01
    11  1.0000000000000D-01  4.3743772743280D-01 -1.8491107707848D-01
    12  1.1000000000000D-01  4.7945271394967D-01 -1.9977985778503D-01
    13  1.2000000000000D-01  5.2098097512246D-01 -2.1368295289929D-01
    14  1.3000000000000D-01  5.6198142185110D-01 -2.2656267553931D-01
    15  1.4000000000000D-01  6.0241371867159D-01 -2.3836837457219D-01
    16  1.5000000000000D-01  6.4223831931394D-01 -2.4905669789161D-01
    17  1.6000000000000D-01  6.8141649683925D-01 -2.5859178764083D-01
    18  1.7000000000000D-01  7.1991036834042D-01 -2.6694540559201D-01
    19  1.8000000000000D-01  7.5768291426549D-01 -2.7409698755855D-01
    20  1.9000000000000D-01  7.9469799249767D-01 -2.8003362639696D-01
    21  2.0000000000000D-01  8.3092034740141D-01 -2.8474998384226D-01
    22  2.1000000000000D-01  8.6631561411693D-01 -2.8824813210955D-01
    23  2.2000000000000D-01  9.0085031845723D-01 -2.9053732687835D-01
    24  2.3000000000000D-01  9.3449187283021D-01 -2.9163371394907D-01
    25  2.4000000000000D-01  9.6720856867263D-01 -2.9155997251588D-01
    26  2.5000000000000D-01  9.9896956594282D-01 -2.9034489863174D-01
    27  2.6000000000000D-01  1.0297448802730D+00 -2.8802293304246D-01
    28  2.7000000000000D-01  1.0595053684302D+00 -2.8463363813240D-01
    29  2.8000000000000D-01  1.0882227127756D+00 -2.8022112924845D-01
    30  2.9000000000000D-01  1.1158694054454D+00 -2.7483346614599D-01
    31  3.0000000000000D-01  1.1424187330002D+00 -2.6852201072601D-01
    32  3.1000000000000D-01  1.1678447623090D+00 -2.6134075760114D-01
    33  3.2000000000000D-01  1.1921223284346D+00 -2.5334564433671D-01
    34  3.3000000000000D-01  1.2152270252924D+00 -2.4459384845670D-01
    35  3.4000000000000D-01  1.2371351998328D+00 -2.3514307848041D-01
    36  3.5000000000000D-01  1.2578239504815D+00 -2.2505086636250D-01
    37  3.6000000000000D-01  1.2772711305349D+00 -2.1437386874290D-01
    38  3.7000000000000D-01  1.2954553571640D+00 -2.0316718437427D-01
    39  3.8000000000000D-01  1.3123560266292D+00 -1.9148369498231D-01
    40  3.9000000000000D-01  1.3279533362422D+00 -1.7937343662684D-01
    41  4.0000000000000D-01  1.3422283135397D+00 -1.6688300837283D-01
    42  4.1000000000000D-01  1.3551628530525D+00 -1.5405502474938D-01
    43  4.2000000000000D-01  1.3667397609612D+00 -1.4092761807446D-01
    44  4.3000000000000D-01  1.3769428078345D+00 -1.2753399625704D-01
    45  4.4000000000000D-01  1.3857567895402D+00 -1.1390206115947D-01
    46  4.5000000000000D-01  1.3931675963088D+00 -1.0005409201655D-01
    47  4.6000000000000D-01  1.3991622898141D+00 -8.6006497767253D-02
    48  4.7000000000000D-01  1.4037291880184D+00 -7.1769641468700D-02
    49  4.8000000000000D-01  1.4068579574051D+00 -5.7347739233599D-02
    50  4.9000000000000D-01  1.4085397121027D+00 -4.2738835370674D-02
    51  5.0000000000000D-01  1.4087671192791D+00 -2.7934854618328D-02
    52  5.1000000000000D-01  1.4075345100667D+00 -1.2921731554851D-02
    53  5.2000000000000D-01  1.4048379951594D+00  2.3203835501515D-03
    54  5.3000000000000D-01  1.4006755841109D+00  1.7816843998700D-02
    55  5.4000000000000D-01  1.3950473072564D+00  3.3598153411591D-02
    56  5.5000000000000D-01  1.3879553390803D+00  4.9699543126993D-02
    57  5.6000000000000D-01  1.3794041217618D+00  6.6160484193840D-02
    58  5.7000000000000D-01  1.3694004875505D+00  8.3024138642328D-02
    59  5.8000000000000D-01  1.3579537785575D+00  1.0033675541510D-01
    60  5.9000000000000D-01  1.3450759624893D+00  1.1814701699050D-01
    61  6.0000000000000D-01  1.3307817428135D+00  1.3650534332121D-01
    62  6.1000000000000D-01  1.3150886618202D+00  1.5546316023585D-01
    63  6.2000000000000D-01  1.2980171950311D+00  1.7507213990374D-01
    64  6.3000000000000D-01  1.2795908354210D+00  1.9538342133550D-01
    65  6.4000000000000D-01  1.2598361659377D+00  2.1644681917963D-01
    66  6.5000000000000D-01  1.2387829188555D+00  2.3831002927370D-01
    67  6.6000000000000D-01  1.2164640205557D+00  2.6101783951196D-01
    68  6.7000000000000D-01  1.1929156204141D+00  2.8461135459968D-01
    69  6.8000000000000D-01  1.1681771025719D+00  3.0912724317128D-01
    70  6.9000000000000D-01  1.1422910794876D+00  3.3459701556250D-01
    71  7.0000000000000D-01  1.1153033663030D+00  3.6104634023387D-01
    72  7.1000000000000D-01  1.0872629352086D+00  3.8849440645902D-01
    73  7.2000000000000D-01  1.0582218491657D+00  4.1695334040990D-01
    74  7.3000000000000D-01  1.0282351745209D+00  4.4642768120174D-01
    75  7.4000000000000D-01  9.9736087225141D-01  4.7691392280461D-01
    76  7.5000000000000D-01  9.6565966778204D-01  5.0840012699575D-01
    77  7.6000000000000D-01  9.3319489953467D-01  5.4086561172454D-01
    78  7.7000000000000D-01  9.0003234659440D-01  5.7428071839764D-01
    79  7.8000000000000D-01  8.6624003610519D-01  6.0860666067621D-01
    80  7.9000000000000D-01  8.3188803123941D-01  6.4379545642309D-01
    81  8.0000000000000D-01  7.9704820081592D-01  6.7978994345261D-01
    82  8.1000000000000D-01  7.6179397186869D-01  7.1652387874044D-01
    83  8.2000000000000D-01  7.2620006668962D-01  7.5392211974498D-01
    84  8.3000000000000D-01  6.9034222608066D-01  7.9190088550745D-01
    85  8.4000000000000D-01  6.5429692075054D-01  8.3036809423093D-01
    86  8.5000000000000D-01  6.1814105297609D-01  8.6922377311743D-01
    87  8.6000000000000D-01  5.8195165081449D-01  9.0836053537254D-01
    88  8.7000000000000D-01  5.4580555729870D-01  9.4766411848656D-01
    89  8.8000000000000D-01  5.0977911716969D-01  9.8701397718319D-01
    90  8.9000000000000D-01  4.7394786379465D-01  1.0262839238039D+00
    91  9.0000000000000D-01  4.3838620898655D-01  1.0653428083807D+00
    92  9.1000000000000D-01  4.0316713847611D-01  1.1040552302520D+00
    93  9.2000000000000D-01  3.6836191578890D-01  1.1422822728107D+00
    94  9.3000000000000D-01  3.3403979724889D-01  1.1798822528395D+00
    95  9.4000000000000D-01  3.0026776076114D-01  1.2167114759040D+00
    96  9.5000000000000D-01  2.6711025092133D-01  1.2526249894356D+00
    97  9.6000000000000D-01  2.3462894285817D-01  1.2874773254511D+00
    98  9.7000000000000D-01  2.0288252703508D-01  1.3211232253255D+00
    99  9.8000000000000D-01  1.7192651702161D-01  1.3534183396552D+00
   100  9.9000000000000D-01  1.4181308199348D-01  1.3842198970179D+00
   101  1.0000000000000D+00  1.1259090543530D-01  1.4133873363427D+00
   102  1.0100000000000D+00  8.4305071191985D-02  1.4407828986864D+00
   103  1.0200000000000D+00  5.6996977690095D-02  1.4662721752992D+00
   104  1.0300000000000D+00  3.0704280747158D-02  1.4897246102394D+00
   105  1.0400000000000D+00  5.4608650080750D-03  1.5110139571056D+00
   106  1.0500000000000D+00 -1.8703156374018D-02  1.5300186909147D+00
   107  1.0600000000000D+00 -4.1761414629273D-02  1.5466223776655D+00
   108  1.0700000000000D+00 -6.3691232091458D-02  1.5607140056480D+00
   109  1.0800000000000D+00 -8.4473544423912D-02  1.5721882840101D+00
   110  1.0900000000000D+00 -1.0409280050982D-01  1.5809459157338D+00
   111  1.1000000000000D+00 -1.2253684255720D-01  1.5868938534805D+00
   112  1.1100000000000D+00 -1.3979676941517D-01  1.5899455482124D+00
   113  1.1200000000000D+00 -1.5586678643873D-01  1.5900212015654D+00
   114  1.1300000000000D+00 -1.7074404564625D-01  1.5870480341649D+00
   115  1.1400000000000D+00 -1.8442848021014D-01  1.5809605828582D+00
   116  1.1500000000000D+00 -1.9692263759095D-01  1.5717010404129D+00
   117  1.1600000000000D+00 -2.0823151581260D-01  1.5592196515401D+00
   118  1.1700000000000D+00 -2.1836240756628D-01  1.5434751792242D+00
   119  1.1800000000000D+00 -2.2732475688294D-01  1.5244354549071D+00
   120  1.1900000000000D+00 -2.3513003303971D-01  1.5020780249133D+00
   121  1.2000000000000D+00 -2.4179162638040D-01  1.4763909051640D+00
   122  1.2100000000000D+00 -2.4732477043100D-01  1.4473734536526D+00
   123  1.2200000000000D+00 -2.5174649432296D-01  1.4150373678352D+00
   124  1.2300000000000D+00 -2.5507560919852D-01  1.3794078118191D+00
   125  1.2400000000000D+00 -2.5733273174354D-01  1.3405246748449D+00
   126  1.2500000000000D+00 -2.5854034700046D-01  1.2984439568759D+00
   127  1.2600000000000D+00 -2.5872291190294D-01  1.2532392731354D+00
   128  1.2700000000000D+00 -2.5790700035367D-01  1.2050034657835D+00
   129  1.2800000000000D+00 -2.5612148856222D-01  1.1538502995261D+00
   130  1.2900000000000D+00 -2.5339777849586D-01  1.0999162134075D+00
   131  1.3000000000000D+00 -2.4977005649673D-01  1.0433620965648D+00
   132  1.3100000000000D+00 -2.4527558038248D-01  9.8437503611515D-01
   133  1.3200000000000D+00 -2.3995498800802D-01  9.2316998365269D-01
   134  1.3300000000000D+00 -2.3385261850102D-01  8.5999127743392D-01
   135  1.3400000000000D+00 -2.2701683172629D-01  7.9511392819012D-01
   136  1.3500000000000D+00 -2.1950031322953D-01  7.2884458523385D-01
   137  1.3600000000000D+00 -2.1136034672681D-01  6.6152207272290D-01
   138  1.3700000000000D+00 -2.0265902939655D-01  5.9351735120936D-01
   139  1.3800000000000D+00 -1.9346341174083D-01  5.2523279280234D-01
   140  1.3900000000000D+00 -1.8384552741803D-01  4.5710057460425D-01
   141  1.4000000000000D+00 -1.7388228211162D-01  3.8958001386807D-01
   142  1.4100000000000D+00 -1.6365516853340D-01  3.2315365821302D-01
   143  1.4200000000000D+00 -1.5324975538514D-01  2.5832184590095D-01
   144  1.4300000000000D+00 -1.4275491543348D-01  1.9559553961627D-01
   145  1.4400000000000D+00 -1.3226172950702D-01  1.3548709255299D-01
   146  1.4500000000000D+00 -1.2186200947414D-01  7.8498637382836D-02
   147  1.4600000000000D+00 -1.1164635957149D-01  2.5107609497774D-02
   148  1.4700000000000D+00 -1.0170176476177D-01 -2.4250441648000D-02
   149  1.4800000000000D+00 -9.2108585370371D-02 -6.9202699364588D-02
   150  1.4900000000000D+00 -8.2937498211756D-02 -1.0945898681183D-01
   151  1.5000000000000D+00 -7.4242092999657D-02 -1.4486314702159D-01
   152  1.5100000000000D+00 -6.6057326327507D-02 -1.7539870093099D-01
   153  1.5200000000000D+00 -5.8401994109273D-02 -2.0116129667076D-01
   154  1.5300000000000D+00 -5.1283166088288D-02 -2.2232179256905D-01
   155  1.5400000000000D+00 -4.4704427476405D-02 -2.3906208908956D-01
   156  1.5500000000000D+00 -3.8664841458502D-02 -2.5158301639639D-01
   157  1.5600000000000D+00 -3.3158194802795D-02 -2.6011132994828D-01
   158  1.5700000000000D+00 -2.8174119566695D-02 -2.6489106099199D-01
   159  1.5800000000000D+00 -2.3698107172784D-02 -2.6618407691438D-01
   160  1.5900000000000D+00 -1.9711977306519D-02 -2.6426706938271D-01
   161  1.6000000000000D+00 -1.6194237219487D-02 -2.5942947727483D-01
   162  1.6100000000000D+00 -1.3120484853601D-02 -2.5197112753254D-01
   163  1.6200000000000D+00 -1.0463828939042D-02 -2.4219979566110D-01
   164  1.6300000000000D+00 -8.1953229199348D-03 -2.3042870250013D-01
   165  1.6400000000000D+00 -6.2844085078317D-03 -2.1697397004593D-01
   166  1.6500000000000D+00 -4.6993648644724D-03 -2.0215205817125D-01
   167  1.6600000000000D+00 -3.4077606928190D-03 -1.8627719509236D-01
   168  1.6700000000000D+00 -2.3769060534600D-03 -1.6965881815124D-01
   169  1.6800000000000D+00 -1.5742965007452D-03 -1.5259906836075D-01
   170  1.6900000000000D+00 -9.6804689544484D-04 -1.3539035225232D-01
   171  1.7000000000000D+00 -5.2731443491142D-04 -1.1831296824652D-01
   172  1.7100000000000D+00 -2.2270707480374D-04 -1.0163281972585D-01
   173  1.7200000000000D+00 -2.6668967711865D-05 -8.5599263976393D-02
   174  1.7300000000000D+00  8.6157229401259D-05 -7.0443095816304D-02
   175  1.7400000000000D+00  1.3859409553376D-04 -5.6374679141969D-02
   176  1.7500000000000D+00  1.5062126215903D-04 -4.3582238315601D-02
   177  1.7600000000000D+00  1.3914627211888D-04 -3.2236623294245D-02
   178  1.7700000000000D+00  1.1759317722945D-04 -2.2466780265008D-02
   179  1.7800000000000D+00  9.5258290290064D-05 -1.4349023804541D-02
   180  1.7900000000000D+00  7.9169617694422D-05 -8.0212638627636D-03
   181  1.8000000000000D+00  7.5188996251419D-05 -3.6866948039096D-03
   182  1.8100000000000D+00  7.9355707302885D-05 -1.2714398051944D-03
   183  1.8200000000000D+00  7.1024607974629D-05 -2.2878837504561D-04
   184  1.8300000000000D+00  3.7054389193100D-05  5.3370531285815D-05
   185  1.8400000000000D+00  1.9269749257089D-06  6.4580060495699D-06
   186  1.8500000000000D+00 -7.9323137252736D-06 -3.5398280050059D-05
   187  1.8600000000000D+00 -2.4526156659233D-06 -1.2964283798626D-05
   188  1.8700000000000D+00  1.6089137002117D-06  4.4382149374822D-06
   189  1.8800000000000D+00  1.0678062422476D-06  3.3635658174246D-06
   190  1.8900000000000D+00 -1.4372400616019D-07  5.8535671684485D-07
   191  1.9000000000000D+00 -1.7763968090690D-07  7.2348790696203D-07
   192  1.9100000000000D+00  0.0000000000000D+00  0.0000000000000D+00
   193  1.9200000000000D+00  0.0000000000000D+00  0.0000000000000D+00
   194  1.9300000000000D+00  0.0000000000000D+00  0.0000000000000D+00
   195  1.9400000000000D+00  0.0000000000000D+00  0.0000000000000D+00
   196  1.9500000000000D+00  0.0000000000000D+00  0.0000000000000D+00
   197  1.9600000000000D+00  0.0000000000000D+00  0.0000000000000D+00
   198  1.9700000000000D+00  0.0000000000000D+00  0.0000000000000D+00
   199  1.9800000000000D+00  0.0000000000000D+00  0.0000000000000D+00
   200  1.9900000000000D+00  0.0000000000000D+00  0.0000000000000D+00
   201  2.0000000000000D+00  0.0000000000000D+00  0.0000000000000D+00
   202  2.0100000000000D+00  0.0000000000000D+00  0.0000000000000D+00
   203  2.0200000000000D+00  0.0000000000000D+00  0.0000000000000D+00
   204  2.0300000000000D+00  0.0000000000000D+00  0.0000000000000D+00
   205  2.0400000000000D+00  0.0000000000000D+00  0.0000000000000D+00
   206  2.0500000000000D+00  0.0000000000000D+00  0.0000000000000D+00
   207  2.0600000000000D+00  0.0000000000000D+00  0.0000000000000D+00
   208  2.0700000000000D+00  0.0000000000000D+00  0.0000000000000D+00
   209  2.0800000000000D+00  0.0000000000000D+00  0.0000000000000D+00
   210  2.0900000000000D+00  0.0000000000000D+00  0.0000000000000D+00
   211  2.1000000000000D+00  0.0000000000000D+00  0.0000000000000D+00
   212  2.1100000000000D+00  0.0000000000000D+00  0.0000000000000D+00
   213  2.1200000000000D+00  0.0000000000000D+00  0.0000000000000D+00
   214  2.1300000000000D+00  0.0000000000000D+00  0.0000000000000D+00
   215  2.1400000000000D+00  0.0000000000000D+00  0.0000000000000D+00
   216  2.1500000000000D+00  0.0000000000000D+00  0.0000000000000D+00
   217  2.1600000000000D+00  0.0000000000000D+00  0.0000000000000D+00
   218  2.1700000000000D+00  0.0000000000000D+00  0.0000000000000D+00
   219  2.1800000000000D+00  0.0000000000000D+00  0.0000000000000D+00
   220  2.1900000000000D+00  0.0000000000000D+00  0.0000000000000D+00
   221  2.2000000000000D+00  0.0000000000000D+00  0.0000000000000D+00
   222  2.2100000000000D+00  0.0000000000000D+00  0.0000000000000D+00
   223  2.2200000000000D+00  0.0000000000000D+00  0.0000000000000D+00
   224  2.2300000000000D+00  0.0000000000000D+00  0.0000000000000D+00
   225  2.2400000000000D+00  0.0000000000000D+00  0.0000000000000D+00
   226  2.2500000000000D+00  0.0000000000000D+00  0.0000000000000D+00
   227  2.2600000000000D+00  0.0000000000000D+00  0.0000000000000D+00
   228  2.2700000000000D+00  0.0000000000000D+00  0.0000000000000D+00
   229  2.2800000000000D+00  0.0000000000000D+00  0.0000000000000D+00
   230  2.2900000000000D+00  0.0000000000000D+00  0.0000000000000D+00
   231  2.3000000000000D+00  0.0000000000000D+00  0.0000000000000D+00
   232  2.3100000000000D+00  0.0000000000000D+00  0.0000000000000D+00
   233  2.3200000000000D+00  0.0000000000000D+00  0.0000000000000D+00
   234  2.3300000000000D+00  0.0000000000000D+00  0.0000000000000D+00
   235  2.3400000000000D+00  0.0000000000000D+00  0.0000000000000D+00
   236  2.3500000000000D+00  0.0000000000000D+00  0.0000000000000D+00
   237  2.3600000000000D+00  0.0000000000000D+00  0.0000000000000D+00
   238  2.3700000000000D+00  0.0000000000000D+00  0.0000000000000D+00
   239  2.3800000000000D+00  0.0000000000000D+00  0.0000000000000D+00
   240  2.3900000000000D+00  0.0000000000000D+00  0.0000000000000D+00
   241  2.4000000000000D+00  0.0000000000000D+00  0.0000000000000D+00
   242  2.4100000000000D+00  0.0000000000000D+00  0.0000000000000D+00
   243  2.4200000000000D+00  0.0000000000000D+00  0.0000000000000D+00
   244  2.4300000000000D+00  0.0000000000000D+00  0.0000000000000D+00
   245  2.4400000000000D+00  0.0000000000000D+00  0.0000000000000D+00
   246  2.4500000000000D+00  0.0000000000000D+00  0.0000000000000D+00
   247  2.4600000000000D+00  0.0000000000000D+00  0.0000000000000D+00
   248  2.4700000000000D+00  0.0000000000000D+00  0.0000000000000D+00
   249  2.4800000000000D+00  0.0000000000000D+00  0.0000000000000D+00
   250  2.4900000000000D+00  0.0000000000000D+00  0.0000000000000D+00
   251  2.5000000000000D+00  0.0000000000000D+00  0.0000000000000D+00
   252  2.5100000000000D+00  0.0000000000000D+00  0.0000000000000D+00
   253  2.5200000000000D+00  0.0000000000000D+00  0.0000000000000D+00
   254  2.5300000000000D+00  0.0000000000000D+00  0.0000000000000D+00
   255  2.5400000000000D+00  0.0000000000000D+00  0.0000000000000D+00
   256  2.5500000000000D+00  0.0000000000000D+00  0.0000000000000D+00
   257  2.5600000000000D+00  0.0000000000000D+00  0.0000000000000D+00
   258  2.5700000000000D+00  0.0000000000000D+00  0.0000000000000D+00
   259  2.5800000000000D+00  0.0000000000000D+00  0.0000000000000D+00
   260  2.5900000000000D+00  0.0000000000000D+00  0.0000000000000D+00
   261  2.6000000000000D+00  0.0000000000000D+00  0.0000000000000D+00
   262  2.6100000000000D+00  0.0000000000000D+00  0.0000000000000D+00
   263  2.6200000000000D+00  0.0000000000000D+00  0.0000000000000D+00
   264  2.6300000000000D+00  0.0000000000000D+00  0.0000000000000D+00
   265  2.6400000000000D+00  0.0000000000000D+00  0.0000000000000D+00
   266  2.6500000000000D+00  0.0000000000000D+00  0.0000000000000D+00
   267  2.6600000000000D+00  0.0000000000000D+00  0.0000000000000D+00
   268  2.6700000000000D+00  0.0000000000000D+00  0.0000000000000D+00
   269  2.6800000000000D+00  0.0000000000000D+00  0.0000000000000D+00
   270  2.6900000000000D+00  0.0000000000000D+00  0.0000000000000D+00
   271  2.7000000000000D+00  0.0000000000000D+00  0.0000000000000D+00
   272  2.7100000000000D+00  0.0000000000000D+00  0.0000000000000D+00
   273  2.7200000000000D+00  0.0000000000000D+00  0.0000000000000D+00
   274  2.7300000000000D+00  0.0000000000000D+00  0.0000000000000D+00
   275  2.7400000000000D+00  0.0000000000000D+00  0.0000000000000D+00
   276  2.7500000000000D+00  0.0000000000000D+00  0.0000000000000D+00
   277  2.7600000000000D+00  0.0000000000000D+00  0.0000000000000D+00
   278  2.7700000000000D+00  0.0000000000000D+00  0.0000000000000D+00
   279  2.7800000000000D+00  0.0000000000000D+00  0.0000000000000D+00
   280  2.7900000000000D+00  0.0000000000000D+00  0.0000000000000D+00
   281  2.8000000000000D+00  0.0000000000000D+00  0.0000000000000D+00
   282  2.8100000000000D+00  0.0000000000000D+00  0.0000000000000D+00
   283  2.8200000000000D+00  0.0000000000000D+00  0.0000000000000D+00
   284  2.8300000000000D+00  0.0000000000000D+00  0.0000000000000D+00
   285  2.8400000000000D+00  0.0000000000000D+00  0.0000000000000D+00
   286  2.8500000000000D+00  0.0000000000000D+00  0.0000000000000D+00
   287  2.8600000000000D+00  0.0000000000000D+00  0.0000000000000D+00
   288  2.8700000000000D+00  0.0000000000000D+00  0.0000000000000D+00
   289  2.8800000000000D+00  0.0000000000000D+00  0.0000000000000D+00
   290  2.8900000000000D+00  0.0000000000000D+00  0.0000000000000D+00
   291  2.9000000000000D+00  0.0000000000000D+00  0.0000000000000D+00
   292  2.9100000000000D+00  0.0000000000000D+00  0.0000000000000D+00
   293  2.9200000000000D+00  0.0000000000000D+00  0.0000000000000D+00
   294  2.9300000000000D+00  0.0000000000000D+00  0.0000000000000D+00
   295  2.9400000000000D+00  0.0000000000000D+00  0.0000000000000D+00
   296  2.9500000000000D+00  0.0000000000000D+00  0.0000000000000D+00
   297  2.9600000000000D+00  0.0000000000000D+00  0.0000000000000D+00
   298  2.9700000000000D+00  0.0000000000000D+00  0.0000000000000D+00
   299  2.9800000000000D+00  0.0000000000000D+00  0.0000000000000D+00
   300  2.9900000000000D+00  0.0000000000000D+00  0.0000000000000D+00
   301  3.0000000000000D+00  0.0000000000000D+00  0.0000000000000D+00
   302  3.0100000000000D+00  0.0000000000000D+00  0.0000000000000D+00
   303  3.0200000000000D+00  0.0000000000000D+00  0.0000000000000D+00
   304  3.0300000000000D+00  0.0000000000000D+00  0.0000000000000D+00
   305  3.0400000000000D+00  0.0000000000000D+00  0.0000000000000D+00
   306  3.0500000000000D+00  0.0000000000000D+00  0.0000000000000D+00
   307  3.0600000000000D+00  0.0000000000000D+00  0.0000000000000D+00
   308  3.0700000000000D+00  0.0000000000000D+00  0.0000000000000D+00
   309  3.0800000000000D+00  0.0000000000000D+00  0.0000000000000D+00
   310  3.0900000000000D+00  0.0000000000000D+00  0.0000000000000D+00
   311  3.1000000000000D+00  0.0000000000000D+00  0.0000000000000D+00
   312  3.1100000000000D+00  0.0000000000000D+00  0.0000000000000D+00
   313  3.1200000000000D+00  0.0000000000000D+00  0.0000000000000D+00
   314  3.1300000000000D+00  0.0000000000000D+00  0.0000000000000D+00
   315  3.1400000000000D+00  0.0000000000000D+00  0.0000000000000D+00
   316  3.1500000000000D+00  0.0000000000000D+00  0.0000000000000D+00
   317  3.1600000000000D+00  0.0000000000000D+00  0.0000000000000D+00
   318  3.1700000000000D+00  0.0000000000000D+00  0.0000000000000D+00
   319  3.1800000000000D+00  0.0000000000000D+00  0.0000000000000D+00
   320  3.1900000000000D+00  0.0000000000000D+00  0.0000000000000D+00
   321  3.2000000000000D+00  0.0000000000000D+00  0.0000000000000D+00
   322  3.2100000000000D+00  0.0000000000000D+00  0.0000000000000D+00
   323  3.2200000000000D+00  0.0000000000000D+00  0.0000000000000D+00
   324  3.2300000000000D+00  0.0000000000000D+00  0.0000000000000D+00
   325  3.2400000000000D+00  0.0000000000000D+00  0.0000000000000D+00
   326  3.2500000000000D+00  0.0000000000000D+00  0.0000000000000D+00
   327  3.2600000000000D+00  0.0000000000000D+00  0.0000000000000D+00
   328  3.2700000000000D+00  0.0000000000000D+00  0.0000000000000D+00
   329  3.2800000000000D+00  0.0000000000000D+00  0.0000000000000D+00
   330  3.2900000000000D+00  0.0000000000000D+00  0.0000000000000D+00
   331  3.3000000000000D+00  0.0000000000000D+00  0.0000000000000D+00
   332  3.3100000000000D+00  0.0000000000000D+00  0.0000000000000D+00
   333  3.3200000000000D+00  0.0000000000000D+00  0.0000000000000D+00
   334  3.3300000000000D+00  0.0000000000000D+00  0.0000000000000D+00
   335  3.3400000000000D+00  0.0000000000000D+00  0.0000000000000D+00
   336  3.3500000000000D+00  0.0000000000000D+00  0.0000000000000D+00
   337  3.3600000000000D+00  0.0000000000000D+00  0.0000000000000D+00
   338  3.3700000000000D+00  0.0000000000000D+00  0.0000000000000D+00
   339  3.3800000000000D+00  0.0000000000000D+00  0.0000000000000D+00
   340  3.3900000000000D+00  0.0000000000000D+00  0.0000000000000D+00
   341  3.4000000000000D+00  0.0000000000000D+00  0.0000000000000D+00
   342  3.4100000000000D+00  0.0000000000000D+00  0.0000000000000D+00
   343  3.4200000000000D+00  0.0000000000000D+00  0.0000000000000D+00
   344  3.4300000000000D+00  0.0000000000000D+00  0.0000000000000D+00
   345  3.4400000000000D+00  0.0000000000000D+00  0.0000000000000D+00
   346  3.4500000000000D+00  0.0000000000000D+00  0.0000000000000D+00
   347  3.4600000000000D+00  0.0000000000000D+00  0.0000000000000D+00
   348  3.4700000000000D+00  0.0000000000000D+00  0.0000000000000D+00
   349  3.4800000000000D+00  0.0000000000000D+00  0.0000000000000D+00
   350  3.4900000000000D+00  0.0000000000000D+00  0.0000000000000D+00
   351  3.5000000000000D+00  0.0000000000000D+00  0.0000000000000D+00
   352  3.5100000000000D+00  0.0000000000000D+00  0.0000000000000D+00
   353  3.5200000000000D+00  0.0000000000000D+00  0.0000000000000D+00
   354  3.5300000000000D+00  0.0000000000000D+00  0.0000000000000D+00
   355  3.5400000000000D+00  0.0000000000000D+00  0.0000000000000D+00
   356  3.5500000000000D+00  0.0000000000000D+00  0.0000000000000D+00
   357  3.5600000000000D+00  0.0000000000000D+00  0.0000000000000D+00
   358  3.5700000000000D+00  0.0000000000000D+00  0.0000000000000D+00
   359  3.5800000000000D+00  0.0000000000000D+00  0.0000000000000D+00
   360  3.5900000000000D+00  0.0000000000000D+00  0.0000000000000D+00
   361  3.6000000000000D+00  0.0000000000000D+00  0.0000000000000D+00
   362  3.6100000000000D+00  0.0000000000000D+00  0.0000000000000D+00
   363  3.6200000000000D+00  0.0000000000000D+00  0.0000000000000D+00
   364  3.6300000000000D+00  0.0000000000000D+00  0.0000000000000D+00
   365  3.6400000000000D+00  0.0000000000000D+00  0.0000000000000D+00
   366  3.6500000000000D+00  0.0000000000000D+00  0.0000000000000D+00
   367  3.6600000000000D+00  0.0000000000000D+00  0.0000000000000D+00
   368  3.6700000000000D+00  0.0000000000000D+00  0.0000000000000D+00
   369  3.6800000000000D+00  0.0000000000000D+00  0.0000000000000D+00
   370  3.6900000000000D+00  0.0000000000000D+00  0.0000000000000D+00
   371  3.7000000000000D+00  0.0000000000000D+00  0.0000000000000D+00
   372  3.7100000000000D+00  0.0000000000000D+00  0.0000000000000D+00
   373  3.7200000000000D+00  0.0000000000000D+00  0.0000000000000D+00
   374  3.7300000000000D+00  0.0000000000000D+00  0.0000000000000D+00
   375  3.7400000000000D+00  0.0000000000000D+00  0.0000000000000D+00
   376  3.7500000000000D+00  0.0000000000000D+00  0.0000000000000D+00
   377  3.7600000000000D+00  0.0000000000000D+00  0.0000000000000D+00
   378  3.7700000000000D+00  0.0000000000000D+00  0.0000000000000D+00
   379  3.7800000000000D+00  0.0000000000000D+00  0.0000000000000D+00
   380  3.7900000000000D+00  0.0000000000000D+00  0.0000000000000D+00
   381  3.8000000000000D+00  0.0000000000000D+00  0.0000000000000D+00
   382  3.8100000000000D+00  0.0000000000000D+00  0.0000000000000D+00
   383  3.8200000000000D+00  0.0000000000000D+00  0.0000000000000D+00
   384  3.8300000000000D+00  0.0000000000000D+00  0.0000000000000D+00
   385  3.8400000000000D+00  0.0000000000000D+00  0.0000000000000D+00
   386  3.8500000000000D+00  0.0000000000000D+00  0.0000000000000D+00
   387  3.8600000000000D+00  0.0000000000000D+00  0.0000000000000D+00
   388  3.8700000000000D+00  0.0000000000000D+00  0.0000000000000D+00
   389  3.8800000000000D+00  0.0000000000000D+00  0.0000000000000D+00
   390  3.8900000000000D+00  0.0000000000000D+00  0.0000000000000D+00
   391  3.9000000000000D+00  0.0000000000000D+00  0.0000000000000D+00
   392  3.9100000000000D+00  0.0000000000000D+00  0.0000000000000D+00
   393  3.9200000000000D+00  0.0000000000000D+00  0.0000000000000D+00
   394  3.9300000000000D+00  0.0000000000000D+00  0.0000000000000D+00
   395  3.9400000000000D+00  0.0000000000000D+00  0.0000000000000D+00
   396  3.9500000000000D+00  0.0000000000000D+00  0.0000000000000D+00
   397  3.9600000000000D+00  0.0000000000000D+00  0.0000000000000D+00
   398  3.9700000000000D+00  0.0000000000000D+00  0.0000000000000D+00
   399  3.9800000000000D+00  0.0000000000000D+00  0.0000000000000D+00
   400  3.9900000000000D+00  0.0000000000000D+00  0.0000000000000D+00
   401  4.0000000000000D+00  0.0000000000000D+00  0.0000000000000D+00
   402  4.0100000000000D+00  0.0000000000000D+00  0.0000000000000D+00
   403  4.0200000000000D+00  0.0000000000000D+00  0.0000000000000D+00
   404  4.0300000000000D+00  0.0000000000000D+00  0.0000000000000D+00
   405  4.0400000000000D+00  0.0000000000000D+00  0.0000000000000D+00
   406  4.0500000000000D+00  0.0000000000000D+00  0.0000000000000D+00
   407  4.0600000000000D+00  0.0000000000000D+00  0.0000000000000D+00
   408  4.0700000000000D+00  0.0000000000000D+00  0.0000000000000D+00
   409  4.0800000000000D+00  0.0000000000000D+00  0.0000000000000D+00
   410  4.0900000000000D+00  0.0000000000000D+00  0.0000000000000D+00
   411  4.1000000000000D+00  0.0000000000000D+00  0.0000000000000D+00
   412  4.1100000000000D+00  0.0000000000000D+00  0.0000000000000D+00
   413  4.1200000000000D+00  0.0000000000000D+00  0.0000000000000D+00
   414  4.1300000000000D+00  0.0000000000000D+00  0.0000000000000D+00
   415  4.1400000000000D+00  0.0000000000000D+00  0.0000000000000D+00
   416  4.1500000000000D+00  0.0000000000000D+00  0.0000000000000D+00
   417  4.1600000000000D+00  0.0000000000000D+00  0.0000000000000D+00
   418  4.1700000000000D+00  0.0000000000000D+00  0.0000000000000D+00
   419  4.1800000000000D+00  0.0000000000000D+00  0.0000000000000D+00
   420  4.1900000000000D+00  0.0000000000000D+00  0.0000000000000D+00
   421  4.2000000000000D+00  0.0000000000000D+00  0.0000000000000D+00
   422  4.2100000000000D+00  0.0000000000000D+00  0.0000000000000D+00