Po    ONCVPSP-3.3.0  r_core=   2.20669   2.20669   1.91239
     84.0000     16.0000      220117    zatom,zion,pspd
     8      11   2     4   600     0    pspcod,pspxc,lmax,lloc,mmax,r2well
  5.99000000  0.00000000  0.00000000    rchrg fchrg qchrg
     2     2     2     0     0    nproj
     1     1           extension_switch
   0                         6.9694164758669D+00  1.1840113928550D+00
     1  0.0000000000000D+00  3.0314223353756D-12 -1.0927730942356D-11
     2  1.0000000000000D-02  8.8677437296352D-03  1.9896346223094D-02
     3  2.0000000000000D-02  1.7769376418450D-02  3.9703949533647D-02
     4  3.0000000000000D-02  2.6738659349113D-02  5.9334402150809D-02
     5  4.0000000000000D-02  3.5809098812391D-02  7.8699965477131D-02
     6  5.0000000000000D-02  4.5013819513213D-02  9.7713901993024D-02
     7  6.0000000000000D-02  5.4385439057043D-02  1.1629080392223D-01
     8  7.0000000000000D-02  6.3955943873089D-02  1.3434691760474D-01
     9  8.0000000000000D-02  7.3756566927871D-02  1.5180046252466D-01
    10  9.0000000000000D-02  8.3817667578821D-02  1.6857194395402D-01
    11  1.0000000000000D-01  9.4168613913070D-02  1.8458445819017D-01
    12  1.1000000000000D-01  1.0483766791118D-01  1.9976398938332D-01
    13  1.2000000000000D-01  1.1585187376956D-01  2.1403969697262D-01
    14  1.3000000000000D-01  1.2723694970829D-01  2.2734419277380D-01
    15  1.4000000000000D-01  1.3901718358369D-01  2.3961380678822D-01
    16  1.5000000000000D-01  1.5121533261635D-01  2.5078884083320D-01
    17  1.6000000000000D-01  1.6385252753620D-01  2.6081380912575D-01
    18  1.7000000000000D-01  1.7694818143651D-01  2.6963766498653D-01
    19  1.8000000000000D-01  1.9051990361771D-01  2.7721401286874D-01
    20  1.9000000000000D-01  2.0458341869072D-01  2.8350130495596D-01
    21  2.0000000000000D-01  2.1915249119720D-01  2.8846302161592D-01
    22  2.1000000000000D-01  2.3423885599124D-01  2.9206783504132D-01
    23  2.2000000000000D-01  2.4985215461343D-01  2.9428975545618D-01
    24  2.3000000000000D-01  2.6599987787359D-01  2.9510825931537D-01
    25  2.4000000000000D-01  2.8268731484390D-01  2.9450839897638D-01
    26  2.5000000000000D-01  2.9991750844775D-01  2.9248089337571D-01
    27  2.6000000000000D-01  3.1769121781385D-01  2.8902219929801D-01
    28  2.7000000000000D-01  3.3600688754739D-01  2.8413456288326D-01
    29  2.8000000000000D-01  3.5486062405294D-01  2.7782605107623D-01
    30  2.9000000000000D-01  3.7424617902497D-01  2.7011056278359D-01
    31  3.0000000000000D-01  3.9415494020330D-01  2.6100781956584D-01
    32  3.1000000000000D-01  4.1457592947114D-01  2.5054333575509D-01
    33  3.2000000000000D-01  4.3549580835358D-01  2.3874836795443D-01
    34  3.3000000000000D-01  4.5689889095393D-01  2.2565984394063D-01
    35  3.4000000000000D-01  4.7876716434450D-01  2.1132027105844D-01
    36  3.5000000000000D-01  5.0108031640723D-01  1.9577762426234D-01
    37  3.6000000000000D-01  5.2381577109791D-01  1.7908521402963D-01
    38  3.7000000000000D-01  5.4694873108629D-01  1.6130153443692D-01
    39  3.8000000000000D-01  5.7045222770192D-01  1.4249009176031D-01
    40  3.9000000000000D-01  5.9429717809358D-01  1.2271921402842D-01
    41  4.0000000000000D-01  6.1845244948816D-01  1.0206184202450D-01
    42  4.1000000000000D-01  6.4288493041193D-01  8.0595302302089D-02
    43  4.2000000000000D-01  6.6755960871557D-01  5.8401062844756D-02
    44  4.3000000000000D-01  6.9243965622153D-01  3.5564472066208D-02
    45  4.4000000000000D-01  7.1748651979090D-01  1.2174481911393D-02
    46  4.5000000000000D-01  7.4266001858473D-01 -1.1676644118200D-02
    47  4.6000000000000D-01  7.6791844727369D-01 -3.5893637130717D-02
    48  4.7000000000000D-01  7.9321868492897D-01 -6.0378542258440D-02
    49  4.8000000000000D-01  8.1851630930639D-01 -8.5031050320725D-02
    50  4.9000000000000D-01  8.4376571621663D-01 -1.0974884068159D-01
    51  5.0000000000000D-01  8.6892024365413D-01 -1.3442793419658D-01
    52  5.1000000000000D-01  8.9393230033969D-01 -1.5896305509578D-01
    53  5.2000000000000D-01  9.1875349831343D-01 -1.8324800060436D-01
    54  5.3000000000000D-01  9.4333478919818D-01 -2.0717601706111D-01
    55  5.4000000000000D-01  9.6762660373743D-01 -2.3064018125745D-01
    56  5.5000000000000D-01  9.9157899419739D-01 -2.5353378568618D-01
    57  5.6000000000000D-01  1.0151417792086D+00 -2.7575072635918D-01
    58  5.7000000000000D-01  1.0382646906108D+00 -2.9718589182914D-01
    59  5.8000000000000D-01  1.0608975218522D+00 -3.1773555202897D-01
    60  5.9000000000000D-01  1.0829902774869D+00 -3.3729774552789D-01
    61  6.0000000000000D-01  1.1044933233021D+00 -3.5577266379173D-01
    62  6.1000000000000D-01  1.1253575366039D+00 -3.7306303102986D-01
    63  6.2000000000000D-01  1.1455344561816D+00 -3.8907447821060D-01
    64  6.3000000000000D-01  1.1649764314689D+00 -4.0371590983184D-01
    65  6.4000000000000D-01  1.1836367704158D+00 -4.1689986204391D-01
    66  6.5000000000000D-01  1.2014698855870D+00 -4.2854285073795D-01
    67  6.6000000000000D-01  1.2184314380025D+00 -4.3856570823365D-01
    68  6.7000000000000D-01  1.2344784782372D+00 -4.4689390722769D-01
    69  6.8000000000000D-01  1.2495695843038D+00 -4.5345787069648D-01
    70  6.9000000000000D-01  1.2636649958484D+00 -4.5819326648463D-01
    71  7.0000000000000D-01  1.2767267441951D+00 -4.6104128535393D-01
    72  7.1000000000000D-01  1.2887187777866D+00 -4.6194890131670D-01
    73  7.2000000000000D-01  1.2996070825813D+00 -4.6086911313103D-01
    74  7.3000000000000D-01  1.3093597969761D+00 -4.5776116589523D-01
    75  7.4000000000000D-01  1.3179473208443D+00 -4.5259075174223D-01
    76  7.5000000000000D-01  1.3253424182909D+00 -4.4533018870460D-01
    77  7.6000000000000D-01  1.3315203137471D+00 -4.3595857689404D-01
    78  7.7000000000000D-01  1.3364587810476D+00 -4.2446193121742D-01
    79  7.8000000000000D-01  1.3401382251520D+00 -4.1083328993361D-01
    80  7.9000000000000D-01  1.3425417561977D+00 -3.9507279844173D-01
    81  8.0000000000000D-01  1.3436552555956D+00 -3.7718776778061D-01
    82  8.1000000000000D-01  1.3434674339037D+00 -3.5719270741265D-01
    83  8.2000000000000D-01  1.3419698802423D+00 -3.3510933196082D-01
    84  8.3000000000000D-01  1.3391571030436D+00 -3.1096654166593D-01
    85  8.4000000000000D-01  1.3350265619534D+00 -2.8480037643179D-01
    86  8.5000000000000D-01  1.3295786907388D+00 -2.5665394342817D-01
    87  8.6000000000000D-01  1.3228169110805D+00 -2.2657731832508D-01
    88  8.7000000000000D-01  1.3147476371654D+00 -1.9462742033632D-01
    89  8.8000000000000D-01  1.3053802710228D+00 -1.6086786135552D-01
    90  8.9000000000000D-01  1.2947271885839D+00 -1.2536876957234D-01
    91  9.0000000000000D-01  1.2828037164749D+00 -8.8206588061860D-02
    92  9.1000000000000D-01  1.2696280995894D+00 -4.9463848943307D-02
    93  9.2000000000000D-01  1.2552214595156D+00 -9.2289238069218D-03
    94  9.3000000000000D-01  1.2396077439335D+00  3.2404248791685D-02
    95  9.4000000000000D-01  1.2228136671214D+00  7.5336457872230D-02
    96  9.5000000000000D-01  1.2048686417540D+00  1.1946353561227D-01
    97  9.6000000000000D-01  1.1858047021973D+00  1.6467669288616D-01
    98  9.7000000000000D-01  1.1656564195442D+00  2.1086287358631D-01
    99  9.8000000000000D-01  1.1444608086614D+00  2.5790512646791D-01
   100  9.9000000000000D-01  1.1222572275509D+00  3.0568299317830D-01
   101  1.0000000000000D+00  1.0990872693563D+00  3.5407291105636D-01
   102  1.0100000000000D+00  1.0749946473735D+00  4.0294862921931D-01
   103  1.0200000000000D+00  1.0500250734521D+00  4.5218163638698D-01
   104  1.0300000000000D+00  1.0242261301971D+00  5.0164159883805D-01
   105  1.0400000000000D+00  9.9764713740752D-01  5.5119680683947D-01
   106  1.0500000000000D+00  9.7033901320670D-01  6.0071462784560D-01
   107  1.0600000000000D+00  9.4235413034357D-01  6.5006196472494D-01
   108  1.0700000000000D+00  9.1374616815856D-01  6.9910571724206D-01
   109  1.0800000000000D+00  8.8456996072809D-01  7.4771324499666D-01
   110  1.0900000000000D+00  8.5488134171397D-01  7.9575283000704D-01
   111  1.1000000000000D+00  8.2473698645760D-01  8.4309413711642D-01
   112  1.1100000000000D+00  7.9419425186864D-01  8.8960867039988D-01
   113  1.1200000000000D+00  7.6331101466669D-01  9.3517022375506D-01
   114  1.1300000000000D+00  7.3214550854055D-01  9.7965532387697D-01
   115  1.1400000000000D+00  7.0075616079291D-01  1.0229436638399D+00
   116  1.1500000000000D+00  6.6920142904001D-01  1.0649185255404D+00
   117  1.1600000000000D+00  6.3753963853538D-01  1.1054671892881D+00
   118  1.1700000000000D+00  6.0582882068368D-01  1.1444813288870D+00
   119  1.1800000000000D+00  5.7412655330353D-01  1.1818573906019D+00
   120  1.1900000000000D+00  5.4248980319352D-01  1.2174969544547D+00
   121  1.2000000000000D+00  5.1097477154407D-01  1.2513070763727D+00
   122  1.2100000000000D+00  4.7963674272476D-01  1.2832006097910D+00
   123  1.2200000000000D+00  4.4852993696195D-01  1.3130965053903D+00
   124  1.2300000000000D+00  4.1770736741188D-01  1.3409200877115D+00
   125  1.2400000000000D+00  3.8722070210669D-01  1.3666033075272D+00
   126  1.2500000000000D+00  3.5712013122959D-01  1.3900849689449D+00
   127  1.2600000000000D+00  3.2745424017177D-01  1.4113109302473D+00
   128  1.2700000000000D+00  2.9826988877523D-01  1.4302342776857D+00
   129  1.2800000000000D+00  2.6961209714627D-01  1.4468154715283D+00
   130  1.2900000000000D+00  2.4152393842000D-01  1.4610224636865D+00
   131  1.3000000000000D+00  2.1404643879561D-01  1.4728307864978D+00
   132  1.3100000000000D+00  1.8721848513772D-01  1.4822236123348D+00
   133  1.3200000000000D+00  1.6107674044648D-01  1.4891917836893D+00
   134  1.3300000000000D+00  1.3565556740814D-01  1.4937338137349D+00
   135  1.3400000000000D+00  1.1098696023807D-01  1.4958558573634D+00
   136  1.3500000000000D+00  8.7100485016799D-02  1.4955716527415D+00
   137  1.3600000000000D+00  6.4023228620186D-02  1.4929024337997D+00
   138  1.3700000000000D+00  4.1779756376345D-02  1.4878768139420D+00
   139  1.3800000000000D+00  2.0392078525207D-02  1.4805306414833D+00
   140  1.3900000000000D+00 -1.2037452453724D-04  1.4709068275852D+00
   141  1.4000000000000D+00 -1.9740768075492D-02  1.4590551472300D+00
   142  1.4100000000000D+00 -3.8454870248401D-02  1.4450320142937D+00
   143  1.4200000000000D+00 -5.6251050362122D-02  1.4289002316210D+00
   144  1.4300000000000D+00 -7.3120268660535D-02  1.4107287171152D+00
   145  1.4400000000000D+00 -8.9056057587611D-02  1.3905922072294D+00
   146  1.4500000000000D+00 -1.0405449468803D-01  1.3685709388842D+00
   147  1.4600000000000D+00 -1.1811416740931D-01  1.3447503114200D+00
   148  1.4700000000000D+00 -1.3123612998666D-01  1.3192205299053D+00
   149  1.4800000000000D+00 -1.4342385266443D-01  1.2920762313499D+00
   150  1.4900000000000D+00 -1.5468316358330D-01  1.2634160955299D+00
   151  1.5000000000000D+00 -1.6502218355814D-01  1.2333424419102D+00
   152  1.5100000000000D+00 -1.7445125417973D-01  1.2019608146048D+00
   153  1.5200000000000D+00 -1.8298285949579D-01  1.1693795569406D+00
   154  1.5300000000000D+00 -1.9063154172692D-01  1.1357093775960D+00
   155  1.5400000000000D+00 -1.9741381135727D-01  1.1010629100393D+00
   156  1.5500000000000D+00 -2.0334805203613D-01  1.0655542672019D+00
   157  1.5600000000000D+00 -2.0845442071367D-01  1.0292985932014D+00
   158  1.5700000000000D+00 -2.1275474343203D-01  9.9241161405745D-01
   159  1.5800000000000D+00 -2.1627240724779D-01  9.5500918916839D-01
   160  1.5900000000000D+00 -2.1903224870987D-01  9.1720686557612D-01
   161  1.6000000000000D+00 -2.2106043938503D-01  8.7911943659605D-01
   162  1.6100000000000D+00 -2.2238436887720D-01  8.4086050697193D-01
   163  1.6200000000000D+00 -2.2303252581525D-01  8.0254206588237D-01
   164  1.6300000000000D+00 -2.2303437728751D-01  7.6427407001559D-01
   165  1.6400000000000D+00 -2.2242024716205D-01  7.2616403783353D-01
   166  1.6500000000000D+00 -2.2122119379497D-01  6.8831665719634D-01
   167  1.6600000000000D+00 -2.1946888752688D-01  6.5083340727804D-01
   168  1.6700000000000D+00 -2.1719548847960D-01  6.1381219684669D-01
   169  1.6800000000000D+00 -2.1443352501043D-01  5.7734701962527D-01
   170  1.6900000000000D+00 -2.1121577333758D-01  5.4152762869751D-01
   171  1.7000000000000D+00 -2.0757513864058D-01  5.0643923040212D-01
   172  1.7100000000000D+00 -2.0354453815139D-01  4.7216219960160D-01
   173  1.7200000000000D+00 -1.9915678646770D-01  4.3877181640175D-01
   174  1.7300000000000D+00 -1.9444448361748D-01  4.0633802620584D-01
   175  1.7400000000000D+00 -1.8943990600522D-01  3.7492522268192D-01
   176  1.7500000000000D+00 -1.8417490080526D-01  3.4459205564324D-01
   177  1.7600000000000D+00 -1.7868078379388D-01  3.1539126276361D-01
   178  1.7700000000000D+00 -1.7298824125436D-01  2.8736952739198D-01
   179  1.7800000000000D+00 -1.6712723576551D-01  2.6056736056796D-01
   180  1.7900000000000D+00 -1.6112691660750D-01  2.3501900988621D-01
   181  1.8000000000000D+00 -1.5501553439725D-01  2.1075239246602D-01
   182  1.8100000000000D+00 -1.4882036075562D-01  1.8778905487789D-01
   183  1.8200000000000D+00 -1.4256761251503D-01  1.6614415692074D-01
   184  1.8300000000000D+00 -1.3628238117920D-01  1.4582648156947D-01
   185  1.8400000000000D+00 -1.2998856721499D-01  1.2683846841957D-01
   186  1.8500000000000D+00 -1.2370881895949D-01  1.0917626904593D-01
   187  1.8600000000000D+00 -1.1746447967667D-01  9.2829837527864D-02
   188  1.8700000000000D+00 -1.1127553295848D-01  7.7783016819196D-02
   189  1.8800000000000D+00 -1.0516056066561D-01  6.4013674113430D-02
   190  1.8900000000000D+00 -9.9136722209523D-02  5.1493919889394D-02
   191  1.9000000000000D+00 -9.3219691739386D-02  4.0190174260489D-02
   192  1.9100000000000D+00 -8.7423554299030D-02  3.0063037006354D-02
   193  1.9200000000000D+00 -8.1760976805602D-02  2.1068278745976D-02
   194  1.9300000000000D+00 -7.6243279711769D-02  1.3157445237854D-02
   195  1.9400000000000D+00 -7.0880559488348D-02  6.2785613741203D-03
   196  1.9500000000000D+00 -6.5681869641283D-02  3.7705826176940D-04
   197  1.9600000000000D+00 -6.0655324390265D-02 -4.6036198079268D-03
   198  1.9700000000000D+00 -5.5808087396675D-02 -8.7218873833795D-03
   199  1.9800000000000D+00 -5.1146391867935D-02 -1.2037789193190D-02
   200  1.9900000000000D+00 -4.6675625388090D-02 -1.4612478745546D-02
   201  2.0000000000000D+00 -4.2400363997323D-02 -1.6507928357559D-02
   202  2.0100000000000D+00 -3.8324425169447D-02 -1.7786562958736D-02
   203  2.0200000000000D+00 -3.4450918899056D-02 -1.8510907564864D-02
   204  2.0300000000000D+00 -3.0782298317197D-02 -1.8743242627196D-02
   205  2.0400000000000D+00 -2.7320410449587D-02 -1.8545264850883D-02
   206  2.0500000000000D+00 -2.4066546737406D-02 -1.7977754983509D-02
   207  2.0600000000000D+00 -2.1021492423421D-02 -1.7100256763954D-02
   208  2.0700000000000D+00 -1.8185575096418D-02 -1.5970765585018D-02
   209  2.0800000000000D+00 -1.5558711586779D-02 -1.4645430575484D-02
   210  2.0900000000000D+00 -1.3140453021224D-02 -1.3178270947803D-02
   211  2.1000000000000D+00 -1.0930028129740D-02 -1.1620906164869D-02
   212  2.1100000000000D+00 -8.9263836558333D-03 -1.0022305129306D-02
   213  2.1200000000000D+00 -7.1282226883889D-03 -8.4285506781698D-03
   214  2.1300000000000D+00 -5.5341504209373D-03 -6.8828718761274D-03
   215  2.1400000000000D+00 -4.1432147871907D-03 -5.4265866232669D-03
   216  2.1500000000000D+00 -2.9514220329358D-03 -4.0910666498881D-03
   217  2.1600000000000D+00 -1.9545181052967D-03 -2.9020919849499D-03
   218  2.1700000000000D+00 -1.1551198730746D-03 -1.9010056368677D-03
   219  2.1800000000000D+00 -5.5871793421294D-04 -1.1333431957906D-03
   220  2.1900000000000D+00 -1.6355782827951D-04 -6.3369555924678D-04
   221  2.2000000000000D+00  5.2357236916332D-05 -3.3855820193403D-04
   222  2.2100000000000D+00  1.2024897095136D-04 -1.7166734900133D-04
   223  2.2200000000000D+00  8.7016751443376D-05 -6.7586601376893D-05
   224  2.2300000000000D+00  1.9678350659072D-05 -1.0806051232531D-05
   225  2.2400000000000D+00 -1.8399551249061D-05  8.6168108931280D-06
   226  2.2500000000000D+00 -1.8571451458854D-05  7.1485707420804D-06
   227  2.2600000000000D+00  2.0042796780648D-08 -1.3468317778777D-08
   228  2.2700000000000D+00  4.3450824127942D-06 -2.7157059440050D-06
   229  2.2800000000000D+00  3.1037605039972D-06 -1.8269444370643D-06
   230  2.2900000000000D+00 -1.2107659685974D-07  2.3612350957652D-07
   231  2.3000000000000D+00 -3.2081188266851D-07  6.2564714911251D-07
   232  2.3100000000000D+00 -1.5029957280725D-07  2.9311414046607D-07
   233  2.3200000000000D+00  0.0000000000000D+00  0.0000000000000D+00
   234  2.3300000000000D+00  0.0000000000000D+00  0.0000000000000D+00
   235  2.3400000000000D+00  0.0000000000000D+00  0.0000000000000D+00
   236  2.3500000000000D+00  0.0000000000000D+00  0.0000000000000D+00
   237  2.3600000000000D+00  0.0000000000000D+00  0.0000000000000D+00
   238  2.3700000000000D+00  0.0000000000000D+00  0.0000000000000D+00
   239  2.3800000000000D+00  0.0000000000000D+00  0.0000000000000D+00
   240  2.3900000000000D+00  0.0000000000000D+00  0.0000000000000D+00
   241  2.4000000000000D+00  0.0000000000000D+00  0.0000000000000D+00
   242  2.4100000000000D+00  0.0000000000000D+00  0.0000000000000D+00
   243  2.4200000000000D+00  0.0000000000000D+00  0.0000000000000D+00
   244  2.4300000000000D+00  0.0000000000000D+00  0.0000000000000D+00
   245  2.4400000000000D+00  0.0000000000000D+00  0.0000000000000D+00
   246  2.4500000000000D+00  0.0000000000000D+00  0.0000000000000D+00
   247  2.4600000000000D+00  0.0000000000000D+00  0.0000000000000D+00
   248  2.4700000000000D+00  0.0000000000000D+00  0.0000000000000D+00
   249  2.4800000000000D+00  0.0000000000000D+00  0.0000000000000D+00
   250  2.4900000000000D+00  0.0000000000000D+00  0.0000000000000D+00
   251  2.5000000000000D+00  0.0000000000000D+00  0.0000000000000D+00
   252  2.5100000000000D+00  0.0000000000000D+00  0.0000000000000D+00
   253  2.5200000000000D+00  0.0000000000000D+00  0.0000000000000D+00
   254  2.5300000000000D+00  0.0000000000000D+00  0.0000000000000D+00
   255  2.5400000000000D+00  0.0000000000000D+00  0.0000000000000D+00
   256  2.5500000000000D+00  0.0000000000000D+00  0.0000000000000D+00
   257  2.5600000000000D+00  0.0000000000000D+00  0.0000000000000D+00
   258  2.5700000000000D+00  0.0000000000000D+00  0.0000000000000D+00
   259  2.5800000000000D+00  0.0000000000000D+00  0.0000000000000D+00
   260  2.5900000000000D+00  0.0000000000000D+00  0.0000000000000D+00
   261  2.6000000000000D+00  0.0000000000000D+00  0.0000000000000D+00
   262  2.6100000000000D+00  0.0000000000000D+00  0.0000000000000D+00
   263  2.6200000000000D+00  0.0000000000000D+00  0.0000000000000D+00
   264  2.6300000000000D+00  0.0000000000000D+00  0.0000000000000D+00
   265  2.6400000000000D+00  0.0000000000000D+00  0.0000000000000D+00
   266  2.6500000000000D+00  0.0000000000000D+00  0.0000000000000D+00
   267  2.6600000000000D+00  0.0000000000000D+00  0.0000000000000D+00
   268  2.6700000000000D+00  0.0000000000000D+00  0.0000000000000D+00
   269  2.6800000000000D+00  0.0000000000000D+00  0.0000000000000D+00
   270  2.6900000000000D+00  0.0000000000000D+00  0.0000000000000D+00
   271  2.7000000000000D+00  0.0000000000000D+00  0.0000000000000D+00
   272  2.7100000000000D+00  0.0000000000000D+00  0.0000000000000D+00
   273  2.7200000000000D+00  0.0000000000000D+00  0.0000000000000D+00
   274  2.7300000000000D+00  0.0000000000000D+00  0.0000000000000D+00
   275  2.7400000000000D+00  0.0000000000000D+00  0.0000000000000D+00
   276  2.7500000000000D+00  0.0000000000000D+00  0.0000000000000D+00
   277  2.7600000000000D+00  0.0000000000000D+00  0.0000000000000D+00
   278  2.7700000000000D+00  0.0000000000000D+00  0.0000000000000D+00
   279  2.7800000000000D+00  0.0000000000000D+00  0.0000000000000D+00
   280  2.7900000000000D+00  0.0000000000000D+00  0.0000000000000D+00
   281  2.8000000000000D+00  0.0000000000000D+00  0.0000000000000D+00
   282  2.8100000000000D+00  0.0000000000000D+00  0.0000000000000D+00
   283  2.8200000000000D+00  0.0000000000000D+00  0.0000000000000D+00
   284  2.8300000000000D+00  0.0000000000000D+00  0.0000000000000D+00
   285  2.8400000000000D+00  0.0000000000000D+00  0.0000000000000D+00
   286  2.8500000000000D+00  0.0000000000000D+00  0.0000000000000D+00
   287  2.8600000000000D+00  0.0000000000000D+00  0.0000000000000D+00
   288  2.8700000000000D+00  0.0000000000000D+00  0.0000000000000D+00
   289  2.8800000000000D+00  0.0000000000000D+00  0.0000000000000D+00
   290  2.8900000000000D+00  0.0000000000000D+00  0.0000000000000D+00
   291  2.9000000000000D+00  0.0000000000000D+00  0.0000000000000D+00
   292  2.9100000000000D+00  0.0000000000000D+00  0.0000000000000D+00
   293  2.9200000000000D+00  0.0000000000000D+00  0.0000000000000D+00
   294  2.9300000000000D+00  0.0000000000000D+00  0.0000000000000D+00
   295  2.9400000000000D+00  0.0000000000000D+00  0.0000000000000D+00
   296  2.9500000000000D+00  0.0000000000000D+00  0.0000000000000D+00
   297  2.9600000000000D+00  0.0000000000000D+00  0.0000000000000D+00
   298  2.9700000000000D+00  0.0000000000000D+00  0.0000000000000D+00
   299  2.9800000000000D+00  0.0000000000000D+00  0.0000000000000D+00
   300  2.9900000000000D+00  0.0000000000000D+00  0.0000000000000D+00
   301  3.0000000000000D+00  0.0000000000000D+00  0.0000000000000D+00
   302  3.0100000000000D+00  0.0000000000000D+00  0.0000000000000D+00
   303  3.0200000000000D+00  0.0000000000000D+00  0.0000000000000D+00
   304  3.0300000000000D+00  0.0000000000000D+00  0.0000000000000D+00
   305  3.0400000000000D+00  0.0000000000000D+00  0.0000000000000D+00
   306  3.0500000000000D+00  0.0000000000000D+00  0.0000000000000D+00
   307  3.0600000000000D+00  0.0000000000000D+00  0.0000000000000D+00
   308  3.0700000000000D+00  0.0000000000000D+00  0.0000000000000D+00
   309  3.0800000000000D+00  0.0000000000000D+00  0.0000000000000D+00
   310  3.0900000000000D+00  0.0000000000000D+00  0.0000000000000D+00
   311  3.1000000000000D+00  0.0000000000000D+00  0.0000000000000D+00
   312  3.1100000000000D+00  0.0000000000000D+00  0.0000000000000D+00
   313  3.1200000000000D+00  0.0000000000000D+00  0.0000000000000D+00
   314  3.1300000000000D+00  0.0000000000000D+00  0.0000000000000D+00
   315  3.1400000000000D+00  0.0000000000000D+00  0.0000000000000D+00
   316  3.1500000000000D+00  0.0000000000000D+00  0.0000000000000D+00
   317  3.1600000000000D+00  0.0000000000000D+00  0.0000000000000D+00
   318  3.1700000000000D+00  0.0000000000000D+00  0.0000000000000D+00
   319  3.1800000000000D+00  0.0000000000000D+00  0.0000000000000D+00
   320  3.1900000000000D+00  0.0000000000000D+00  0.0000000000000D+00
   321  3.2000000000000D+00  0.0000000000000D+00  0.0000000000000D+00
   322  3.2100000000000D+00  0.0000000000000D+00  0.0000000000000D+00
   323  3.2200000000000D+00  0.0000000000000D+00  0.0000000000000D+00
   324  3.2300000000000D+00  0.0000000000000D+00  0.0000000000000D+00
   325  3.2400000000000D+00  0.0000000000000D+00  0.0000000000000D+00
   326  3.2500000000000D+00  0.0000000000000D+00  0.0000000000000D+00
   327  3.2600000000000D+00  0.0000000000000D+00  0.0000000000000D+00
   328  3.2700000000000D+00  0.0000000000000D+00  0.0000000000000D+00
   329  3.2800000000000D+00  0.0000000000000D+00  0.0000000000000D+00
   330  3.2900000000000D+00  0.0000000000000D+00  0.0000000000000D+00
   331  3.3000000000000D+00  0.0000000000000D+00  0.0000000000000D+00
   332  3.3100000000000D+00  0.0000000000000D+00  0.0000000000000D+00
   333  3.3200000000000D+00  0.0000000000000D+00  0.0000000000000D+00
   334  3.3300000000000D+00  0.0000000000000D+00  0.0000000000000D+00
   335  3.3400000000000D+00  0.0000000000000D+00  0.0000000000000D+00
   336  3.3500000000000D+00  0.0000000000000D+00  0.0000000000000D+00
   337  3.3600000000000D+00  0.0000000000000D+00  0.0000000000000D+00
   338  3.3700000000000D+00  0.0000000000000D+00  0.0000000000000D+00
   339  3.3800000000000D+00  0.0000000000000D+00  0.0000000000000D+00
   340  3.3900000000000D+00  0.0000000000000D+00  0.0000000000000D+00
   341  3.4000000000000D+00  0.0000000000000D+00  0.0000000000000D+00
   342  3.4100000000000D+00  0.0000000000000D+00  0.0000000000000D+00
   343  3.4200000000000D+00  0.0000000000000D+00  0.0000000000000D+00
   344  3.4300000000000D+00  0.0000000000000D+00  0.0000000000000D+00
   345  3.4400000000000D+00  0.0000000000000D+00  0.0000000000000D+00
   346  3.4500000000000D+00  0.0000000000000D+00  0.0000000000000D+00
   347  3.4600000000000D+00  0.0000000000000D+00  0.0000000000000D+00
   348  3.4700000000000D+00  0.0000000000000D+00  0.0000000000000D+00
   349  3.4800000000000D+00  0.0000000000000D+00  0.0000000000000D+00
   350  3.4900000000000D+00  0.0000000000000D+00  0.0000000000000D+00
   351  3.5000000000000D+00  0.0000000000000D+00  0.0000000000000D+00
   352  3.5100000000000D+00  0.0000000000000D+00  0.0000000000000D+00
   353  3.5200000000000D+00  0.0000000000000D+00  0.0000000000000D+00
   354  3.5300000000000D+00  0.0000000000000D+00  0.0000000000000D+00
   355  3.5400000000000D+00  0.0000000000000D+00  0.0000000000000D+00
   356  3.5500000000000D+00  0.0000000000000D+00  0.0000000000000D+00
   357  3.5600000000000D+00  0.0000000000000D+00  0.0000000000000D+00
   358  3.5700000000000D+00  0.0000000000000D+00  0.0000000000000D+00
   359  3.5800000000000D+00  0.0000000000000D+00  0.0000000000000D+00
   360  3.5900000000000D+00  0.0000000000000D+00  0.0000000000000D+00
   361  3.6000000000000D+00  0.0000000000000D+00  0.0000000000000D+00
   362  3.6100000000000D+00  0.0000000000000D+00  0.0000000000000D+00
   363  3.6200000000000D+00  0.0000000000000D+00  0.0000000000000D+00
   364  3.6300000000000D+00  0.0000000000000D+00  0.0000000000000D+00
   365  3.6400000000000D+00  0.0000000000000D+00  0.0000000000000D+00
   366  3.6500000000000D+00  0.0000000000000D+00  0.0000000000000D+00
   367  3.6600000000000D+00  0.0000000000000D+00  0.0000000000000D+00
   368  3.6700000000000D+00  0.0000000000000D+00  0.0000000000000D+00
   369  3.6800000000000D+00  0.0000000000000D+00  0.0000000000000D+00
   370  3.6900000000000D+00  0.0000000000000D+00  0.0000000000000D+00
   371  3.7000000000000D+00  0.0000000000000D+00  0.0000000000000D+00
   372  3.7100000000000D+00  0.0000000000000D+00  0.0000000000000D+00
   373  3.7200000000000D+00  0.0000000000000D+00  0.0000000000000D+00
   374  3.7300000000000D+00  0.0000000000000D+00  0.0000000000000D+00
   375  3.7400000000000D+00  0.0000000000000D+00  0.0000000000000D+00
   376  3.7500000000000D+00  0.0000000000000D+00  0.0000000000000D+00
   377  3.7600000000000D+00  0.0000000000000D+00  0.0000000000000D+00
   378  3.7700000000000D+00  0.0000000000000D+00  0.0000000000000D+00
   379  3.7800000000000D+00  0.0000000000000D+00  0.0000000000000D+00
   380  3.7900000000000D+00  0.0000000000000D+00  0.0000000000000D+00
   381  3.8000000000000D+00  0.0000000000000D+00  0.0000000000000D+00
   382  3.8100000000000D+00  0.0000000000000D+00  0.0000000000000D+00
   383  3.8200000000000D+00  0.0000000000000D+00  0.0000000000000D+00
   384  3.8300000000000D+00  0.0000000000000D+00  0.0000000000000D+00
   385  3.8400000000000D+00  0.0000000000000D+00  0.0000000000000D+00
   386  3.8500000000000D+00  0.0000000000000D+00  0.0000000000000D+00
   387  3.8600000000000D+00  0.0000000000000D+00  0.0000000000000D+00
   388  3.8700000000000D+00  0.0000000000000D+00  0.0000000000000D+00
   389  3.8800000000000D+00  0.0000000000000D+00  0.0000000000000D+00
   390  3.8900000000000D+00  0.0000000000000D+00  0.0000000000000D+00
   391  3.9000000000000D+00  0.0000000000000D+00  0.0000000000000D+00
   392  3.9100000000000D+00  0.0000000000000D+00  0.0000000000000D+00
   393  3.9200000000000D+00  0.0000000000000D+00  0.0000000000000D+00
   394  3.9300000000000D+00  0.0000000000000D+00  0.0000000000000D+00
   395  3.9400000000000D+00  0.0000000000000D+00  0.0000000000000D+00
   396  3.9500000000000D+00  0.0000000000000D+00  0.0000000000000D+00
   397  3.9600000000000D+00  0.0000000000000D+00  0.0000000000000D+00
   398  3.9700000000000D+00  0.0000000000000D+00  0.0000000000000D+00
   399  3.9800000000000D+00  0.0000000000000D+00  0.0000000000000D+00
   400  3.9900000000000D+00  0.0000000000000D+00  0.0000000000000D+00
   401  4.0000000000000D+00  0.0000000000000D+00  0.0000000000000D+00
   402  4.0100000000000D+00  0.0000000000000D+00  0.0000000000000D+00
   403  4.0200000000000D+00  0.0000000000000D+00  0.0000000000000D+00
   404  4.0300000000000D+00  0.0000000000000D+00  0.0000000000000D+00
   405  4.0400000000000D+00  0.0000000000000D+00  0.0000000000000D+00
   406  4.0500000000000D+00  0.0000000000000D+00  0.0000000000000D+00
   407  4.0600000000000D+00  0.0000000000000D+00  0.0000000000000D+00
   408  4.0700000000000D+00  0.0000000000000D+00  0.0000000000000D+00
   409  4.0800000000000D+00  0.0000000000000D+00  0.0000000000000D+00
   410  4.0900000000000D+00  0.0000000000000D+00  0.0000000000000D+00
   411  4.1000000000000D+00  0.0000000000000D+00  0.0000000000000D+00
   412  4.1100000000000D+00  0.0000000000000D+00  0.0000000000000D+00
   413  4.1200000000000D+00  0.0000000000000D+00  0.0000000000000D+00
   414  4.1300000000000D+00  0.0000000000000D+00  0.0000000000000D+00
   415  4.1400000000000D+00  0.0000000000000D+00  0.0000000000000D+00
   416  4.1500000000000D+00  0.0000000000000D+00  0.0000000000000D+00
   417  4.1600000000000D+00  0.0000000000000D+00  0.0000000000000D+00
   418  4.1700000000000D+00  0.0000000000000D+00  0.0000000000000D+00
   419  4.1800000000000D+00  0.0000000000000D+00  0.0000000000000D+00
   420  4.1900000000000D+00  0.0000000000000D+00  0.0000000000000D+00
   421  4.2000000000000D+00  0.0000000000000D+00  0.0000000000000D+00
   422  4.2100000000000D+00  0.0000000000000D+00  0.0000000000000D+00