Po    ONCVPSP-3.3.0  r_core=   1.40243   1.50649   1.40243
     84.0000     24.0000      220117    zatom,zion,pspd
     8      11   2     4   600     0    pspcod,pspxc,lmax,lloc,mmax,r2well
  5.99000000  0.00000000  0.00000000    rchrg fchrg qchrg
     2     2     2     0     0    nproj
     1     1           extension_switch
   0                         1.7608727807949D+01  2.5213674100324D+00
     1  0.0000000000000D+00 -9.7386221309392D-10  2.1734846977761D-09
     2  1.0000000000000D-02  8.8940158780654D-02 -1.8573338627942D-02
     3  2.0000000000000D-02  1.7759926344083D-01 -3.6891605948880D-02
     4  3.0000000000000D-02  2.6569780009326D-01 -5.4702346086118D-02
     5  4.0000000000000D-02  3.5295931845488D-01 -7.1758297498563D-02
     6  5.0000000000000D-02  4.3911192174607D-01 -8.7819899400344D-02
     7  6.0000000000000D-02  5.2388970701138D-01 -1.0265769085441D-01
     8  7.0000000000000D-02  6.0703414049789D-01 -1.1605456935908D-01
     9  8.0000000000000D-02  6.8829535370196D-01 -1.2780787792001D-01
    10  9.0000000000000D-02  7.6743334688374D-01 -1.3773129225489D-01
    11  1.0000000000000D-01  8.4421908823540D-01 -1.4565648287444D-01
    12  1.1000000000000D-01  9.1843549845115D-01 -1.5143453027385D-01
    13  1.2000000000000D-01  9.8987831216113D-01 -1.5493707530116D-01
    14  1.3000000000000D-01  1.0583568095308D+00 -1.5605719088466D-01
    15  1.4000000000000D-01  1.1236944132637D+00 -1.5470996563708D-01
    16  1.5000000000000D-01  1.1857291482494D+00 -1.5083279434435D-01
    17  1.6000000000000D-01  1.2443139631356D+00 -1.4438537492099D-01
    18  1.7000000000000D-01  1.2993169151478D+00 -1.3534941600219D-01
    19  1.8000000000000D-01  1.3506212214921D+00 -1.2372806387306D-01
    20  1.9000000000000D-01  1.3981251826283D+00 -1.0954506183609D-01
    21  2.0000000000000D-01  1.4417419845634D+00 -9.2843659320128D-02
    22  2.1000000000000D-01  1.4813993890491D+00 -7.3685291969361D-02
    23  2.2000000000000D-01  1.5170393221580D+00 -5.2148057556191D-02
    24  2.3000000000000D-01  1.5486173731175D+00 -2.8325015777325D-02
    25  2.4000000000000D-01  1.5761022164906D+00 -2.3223427645294D-03
    26  2.5000000000000D-01  1.5994749717760D+00  2.5742626577871D-02
    27  2.6000000000000D-01  1.6187285152462D+00  5.5743433547683D-02
    28  2.7000000000000D-01  1.6338667593281D+00  8.7546571885912D-02
    29  2.8000000000000D-01  1.6449039150624D+00  1.2101356864302D-01
    30  2.9000000000000D-01  1.6518637531261D+00  1.5600303303728D-01
    31  3.0000000000000D-01  1.6547788785891D+00  1.9237263729136D-01
    32  3.1000000000000D-01  1.6536900339864D+00  2.2998099465867D-01
    33  3.2000000000000D-01  1.6486454444351D+00  2.6868940167132D-01
    34  3.3000000000000D-01  1.6397002174233D+00  3.0836341403258D-01
    35  3.4000000000000D-01  1.6269158085586D+00  3.4887422850810D-01
    36  3.5000000000000D-01  1.6103595630048D+00  3.9009984659955D-01
    37  3.6000000000000D-01  1.5901043405886D+00  4.3192599966381D-01
    38  3.7000000000000D-01  1.5662282306389D+00  4.7424681941112D-01
    39  3.8000000000000D-01  1.5388143605695D+00  5.1696524231405D-01
    40  3.9000000000000D-01  1.5079508000619D+00  5.5999314131276D-01
    41  4.0000000000000D-01  1.4737305604790D+00  6.0325118323671D-01
    42  4.1000000000000D-01  1.4362516868893D+00  6.4666841549567D-01
    43  4.2000000000000D-01  1.3956174378343D+00  6.9018159074274D-01
    44  4.3000000000000D-01  1.3519365457740D+00  7.3373424329112D-01
    45  4.4000000000000D-01  1.3053235490344D+00  7.7727553599092D-01
    46  4.5000000000000D-01  1.2558991840924D+00  8.2075890095580D-01
    47  4.6000000000000D-01  1.2037908252121D+00  8.6414050188920D-01
    48  4.7000000000000D-01  1.1491329568182D+00  9.0737754971900D-01
    49  4.8000000000000D-01  1.0920676625991D+00  9.5042650672976D-01
    50  4.9000000000000D-01  1.0327451141993D+00  9.9324121731911D-01
    51  5.0000000000000D-01  9.7132404151437D-01  1.0357710058370D+00
    52  5.1000000000000D-01  9.0797216606803D-01  1.0779587836401D+00
    53  5.2000000000000D-01  8.4286657874246D-01  1.1197392084709D+00
    54  5.3000000000000D-01  7.7619404326790D-01  1.1610369395129D+00
    55  5.4000000000000D-01  7.0815120735810D-01  1.2017650309692D+00
    56  5.5000000000000D-01  6.3894470420931D-01  1.2418235057415D+00
    57  5.6000000000000D-01  5.6879112825988D-01  1.2810981487620D+00
    58  5.7000000000000D-01  4.9791687061619D-01  1.3194595567716D+00
    59  5.8000000000000D-01  4.2655780139097D-01  1.3567624778480D+00
    60  5.9000000000000D-01  3.5495878832339D-01  1.3928454698583D+00
    61  6.0000000000000D-01  2.8337304346635D-01  1.4275309022195D+00
    62  6.1000000000000D-01  2.1206129235670D-01  1.4606253200574D+00
    63  6.2000000000000D-01  1.4129076294608D-01  1.4919201840271D+00
    64  6.3000000000000D-01  7.1333994566974D-02  1.5211929928834D+00
    65  6.4000000000000D-01  2.4674703380854D-03  1.5482087893844D+00
    66  6.5000000000000D-01 -6.5029920388442D-02  1.5727220434040D+00
    67  6.6000000000000D-01 -1.3087857973712D-01  1.5944788993520D+00
    68  6.7000000000000D-01 -1.9480004618935D-01  1.6132197682017D+00
    69  6.8000000000000D-01 -2.5651897056318D-01  1.6286822377681D+00
    70  6.9000000000000D-01 -3.1576520407806D-01  1.6406042684685D+00
    71  7.0000000000000D-01 -3.7227597674138D-01  1.6487276357278D+00
    72  7.1000000000000D-01 -4.2579814177983D-01  1.6528015745650D+00
    73  7.2000000000000D-01 -4.7609045963327D-01  1.6525865768627D+00
    74  7.3000000000000D-01 -5.2292589314960D-01  1.6478582874182D+00
    75  7.4000000000000D-01 -5.6609388412541D-01  1.6384114412402D+00
    76  7.5000000000000D-01 -6.0540258025050D-01  1.6240637817241D+00
    77  7.6000000000000D-01 -6.4068098087605D-01  1.6046598974155D+00
    78  7.7000000000000D-01 -6.7178096985314D-01  1.5800749140891D+00
    79  7.8000000000000D-01 -6.9857920399742D-01  1.5502179788697D+00
    80  7.9000000000000D-01 -7.2097882653716D-01  1.5150354741374D+00
    81  8.0000000000000D-01 -7.3891097619785D-01  1.4745139009863D+00
    82  8.1000000000000D-01 -7.5233606435805D-01  1.4286823750509D+00
    83  8.2000000000000D-01 -7.6124479496715D-01  1.3776146815421D+00
    84  8.3000000000000D-01 -7.6565890462176D-01  1.3214308413142D+00
    85  8.4000000000000D-01 -7.6563160332314D-01  1.2602981456489D+00
    86  8.5000000000000D-01 -7.6124769994739D-01  1.1944316241252D+00
    87  8.6000000000000D-01 -7.5262340031281D-01  1.1240939173731D+00
    88  8.7000000000000D-01 -7.3990576986139D-01  1.0495945345431D+00
    89  8.8000000000000D-01 -7.2327185734937D-01  9.7128848391184D-01
    90  8.9000000000000D-01 -7.0292748046834D-01  8.8957427397745D-01
    91  9.0000000000000D-01 -6.7910567897905D-01  8.0489129165766D-01
    92  9.1000000000000D-01 -6.5206484561469D-01  7.1771657353599D-01
    93  9.2000000000000D-01 -6.2208654966110D-01  6.2856099544004D-01
    94  9.3000000000000D-01 -5.8947307266601D-01  5.3796491480187D-01
    95  9.4000000000000D-01 -5.5454468009646D-01  4.4649330910619D-01
    96  9.5000000000000D-01 -5.1763665688507D-01  3.5473046213062D-01
    97  9.6000000000000D-01 -4.7909613861267D-01  2.6327425748535D-01
    98  9.7000000000000D-01 -4.3927877350411D-01  1.7273014603339D-01
    99  9.8000000000000D-01 -3.9854525340463D-01  8.3704859992188D-02
   100  9.9000000000000D-01 -3.5725775441216D-01 -3.2000482118249D-03
   101  1.0000000000000D+00 -3.1577632978584D-01 -8.7394760107328D-02
   102  1.0100000000000D+00 -2.7445529914855D-01 -1.6830775306971D-01
   103  1.0200000000000D+00 -2.3363967879218D-01 -2.4539228278297D-01
   104  1.0300000000000D+00 -1.9366169801433D-01 -3.1813269861152D-01
   105  1.0400000000000D+00 -1.5483744594028D-01 -3.8605050490418D-01
   106  1.0500000000000D+00 -1.1746369211177D-01 -4.4871008334315D-01
   107  1.0600000000000D+00 -8.1814922318346D-02 -5.0572399482708D-01
   108  1.0700000000000D+00 -4.8140628906867D-02 -5.5675778364259D-01
   109  1.0800000000000D+00 -1.6662891542831D-02 -6.0153421298983D-01
   110  1.0900000000000D+00  1.2425718939147D-02 -6.3983686743713D-01
   111  1.1000000000000D+00  3.8963885314782D-02 -6.7151306643003D-01
   112  1.1100000000000D+00  6.2822913259231D-02 -6.9647604118271D-01
   113  1.1200000000000D+00  8.3907706138725D-02 -7.1470633739166D-01
   114  1.1300000000000D+00  1.0215733172725D-01 -7.2625241699321D-01
   115  1.1400000000000D+00  1.1754517273148D-01 -7.3123044305401D-01
   116  1.1500000000000D+00  1.3007865852204D-01 -7.2982324287744D-01
   117  1.1600000000000D+00  1.3979858106057D-01 -7.2227845557053D-01
   118  1.1700000000000D+00  1.4677800458521D-01 -7.0890588346702D-01
   119  1.1800000000000D+00  1.5112078407497D-01 -6.9007407773863D-01
   120  1.1900000000000D+00  1.5295971205354D-01 -6.6620619762228D-01
   121  1.2000000000000D+00  1.5245431996520D-01 -6.3777519607907D-01
   122  1.2100000000000D+00  1.4978836498949D-01 -6.0529839401129D-01
   123  1.2200000000000D+00  1.4516703745612D-01 -5.6933151379094D-01
   124  1.2300000000000D+00  1.3881392752452D-01 -5.3046224989263D-01
   125  1.2400000000000D+00  1.3096779514029D-01 -4.8930346517569D-01
   126  1.2500000000000D+00  1.2187918881249D-01 -4.4648610442850D-01
   127  1.2600000000000D+00  1.1180696104223D-01 -4.0265192147257D-01
   128  1.2700000000000D+00  1.0101473372304D-01 -3.5844612766044D-01
   129  1.2800000000000D+00  8.9767365814072D-02 -3.1451006682044D-01
   130  1.2900000000000D+00  7.8327369891761D-02 -2.7147378627339D-01
   131  1.3000000000000D+00  6.6951608124084D-02 -2.2994922817746D-01
   132  1.3100000000000D+00  5.5888583359642D-02 -1.9052477640369D-01
   133  1.3200000000000D+00  4.5372023326988D-02 -1.5375128992569D-01
   134  1.3300000000000D+00  3.5614834992638D-02 -1.2012906684561D-01
   135  1.3400000000000D+00  2.6802864458961D-02 -9.0094463279981D-02
   136  1.3500000000000D+00  1.9092411418588D-02 -6.4015033028516D-02
   137  1.3600000000000D+00  1.2612480472539D-02 -4.2199687357706D-02
   138  1.3700000000000D+00  7.4399661984557D-03 -2.4818482413695D-02
   139  1.3800000000000D+00  3.6255699735893D-03 -1.1992302782556D-02
   140  1.3900000000000D+00  1.3200366919599D-03 -4.1972919797711D-03
   141  1.4000000000000D+00  3.2161245273011D-04 -8.1467127213181D-04
   142  1.4100000000000D+00  2.7583575618460D-05  5.5184885662445D-05
   143  1.4200000000000D+00  6.0664709772017D-07 -7.7562631077752D-06
   144  1.4300000000000D+00  6.5522248313026D-06 -4.5236327488250D-05
   145  1.4400000000000D+00 -7.3298301454506D-08  4.6854293533168D-06
   146  1.4500000000000D+00 -2.7413261792048D-07  4.3347669956454D-06
   147  1.4600000000000D+00 -5.6861335319534D-07  1.2214275655209D-06
   148  1.4700000000000D+00 -9.7937830853742D-08  2.1037839797440D-07
   149  1.4800000000000D+00  0.0000000000000D+00  0.0000000000000D+00
   150  1.4900000000000D+00  0.0000000000000D+00  0.0000000000000D+00
   151  1.5000000000000D+00  0.0000000000000D+00  0.0000000000000D+00
   152  1.5100000000000D+00  0.0000000000000D+00  0.0000000000000D+00
   153  1.5200000000000D+00  0.0000000000000D+00  0.0000000000000D+00
   154  1.5300000000000D+00  0.0000000000000D+00  0.0000000000000D+00
   155  1.5400000000000D+00  0.0000000000000D+00  0.0000000000000D+00
   156  1.5500000000000D+00  0.0000000000000D+00  0.0000000000000D+00
   157  1.5600000000000D+00  0.0000000000000D+00  0.0000000000000D+00
   158  1.5700000000000D+00  0.0000000000000D+00  0.0000000000000D+00
   159  1.5800000000000D+00  0.0000000000000D+00  0.0000000000000D+00
   160  1.5900000000000D+00  0.0000000000000D+00  0.0000000000000D+00
   161  1.6000000000000D+00  0.0000000000000D+00  0.0000000000000D+00
   162  1.6100000000000D+00  0.0000000000000D+00  0.0000000000000D+00
   163  1.6200000000000D+00  0.0000000000000D+00  0.0000000000000D+00
   164  1.6300000000000D+00  0.0000000000000D+00  0.0000000000000D+00
   165  1.6400000000000D+00  0.0000000000000D+00  0.0000000000000D+00
   166  1.6500000000000D+00  0.0000000000000D+00  0.0000000000000D+00
   167  1.6600000000000D+00  0.0000000000000D+00  0.0000000000000D+00
   168  1.6700000000000D+00  0.0000000000000D+00  0.0000000000000D+00
   169  1.6800000000000D+00  0.0000000000000D+00  0.0000000000000D+00
   170  1.6900000000000D+00  0.0000000000000D+00  0.0000000000000D+00
   171  1.7000000000000D+00  0.0000000000000D+00  0.0000000000000D+00
   172  1.7100000000000D+00  0.0000000000000D+00  0.0000000000000D+00
   173  1.7200000000000D+00  0.0000000000000D+00  0.0000000000000D+00
   174  1.7300000000000D+00  0.0000000000000D+00  0.0000000000000D+00
   175  1.7400000000000D+00  0.0000000000000D+00  0.0000000000000D+00
   176  1.7500000000000D+00  0.0000000000000D+00  0.0000000000000D+00
   177  1.7600000000000D+00  0.0000000000000D+00  0.0000000000000D+00
   178  1.7700000000000D+00  0.0000000000000D+00  0.0000000000000D+00
   179  1.7800000000000D+00  0.0000000000000D+00  0.0000000000000D+00
   180  1.7900000000000D+00  0.0000000000000D+00  0.0000000000000D+00
   181  1.8000000000000D+00  0.0000000000000D+00  0.0000000000000D+00
   182  1.8100000000000D+00  0.0000000000000D+00  0.0000000000000D+00
   183  1.8200000000000D+00  0.0000000000000D+00  0.0000000000000D+00
   184  1.8300000000000D+00  0.0000000000000D+00  0.0000000000000D+00
   185  1.8400000000000D+00  0.0000000000000D+00  0.0000000000000D+00
   186  1.8500000000000D+00  0.0000000000000D+00  0.0000000000000D+00
   187  1.8600000000000D+00  0.0000000000000D+00  0.0000000000000D+00
   188  1.8700000000000D+00  0.0000000000000D+00  0.0000000000000D+00
   189  1.8800000000000D+00  0.0000000000000D+00  0.0000000000000D+00
   190  1.8900000000000D+00  0.0000000000000D+00  0.0000000000000D+00
   191  1.9000000000000D+00  0.0000000000000D+00  0.0000000000000D+00
   192  1.9100000000000D+00  0.0000000000000D+00  0.0000000000000D+00
   193  1.9200000000000D+00  0.0000000000000D+00  0.0000000000000D+00
   194  1.9300000000000D+00  0.0000000000000D+00  0.0000000000000D+00
   195  1.9400000000000D+00  0.0000000000000D+00  0.0000000000000D+00
   196  1.9500000000000D+00  0.0000000000000D+00  0.0000000000000D+00
   197  1.9600000000000D+00  0.0000000000000D+00  0.0000000000000D+00
   198  1.9700000000000D+00  0.0000000000000D+00  0.0000000000000D+00
   199  1.9800000000000D+00  0.0000000000000D+00  0.0000000000000D+00
   200  1.9900000000000D+00  0.0000000000000D+00  0.0000000000000D+00
   201  2.0000000000000D+00  0.0000000000000D+00  0.0000000000000D+00
   202  2.0100000000000D+00  0.0000000000000D+00  0.0000000000000D+00
   203  2.0200000000000D+00  0.0000000000000D+00  0.0000000000000D+00
   204  2.0300000000000D+00  0.0000000000000D+00  0.0000000000000D+00
   205  2.0400000000000D+00  0.0000000000000D+00  0.0000000000000D+00
   206  2.0500000000000D+00  0.0000000000000D+00  0.0000000000000D+00
   207  2.0600000000000D+00  0.0000000000000D+00  0.0000000000000D+00
   208  2.0700000000000D+00  0.0000000000000D+00  0.0000000000000D+00
   209  2.0800000000000D+00  0.0000000000000D+00  0.0000000000000D+00
   210  2.0900000000000D+00  0.0000000000000D+00  0.0000000000000D+00
   211  2.1000000000000D+00  0.0000000000000D+00  0.0000000000000D+00
   212  2.1100000000000D+00  0.0000000000000D+00  0.0000000000000D+00
   213  2.1200000000000D+00  0.0000000000000D+00  0.0000000000000D+00
   214  2.1300000000000D+00  0.0000000000000D+00  0.0000000000000D+00
   215  2.1400000000000D+00  0.0000000000000D+00  0.0000000000000D+00
   216  2.1500000000000D+00  0.0000000000000D+00  0.0000000000000D+00
   217  2.1600000000000D+00  0.0000000000000D+00  0.0000000000000D+00
   218  2.1700000000000D+00  0.0000000000000D+00  0.0000000000000D+00
   219  2.1800000000000D+00  0.0000000000000D+00  0.0000000000000D+00
   220  2.1900000000000D+00  0.0000000000000D+00  0.0000000000000D+00
   221  2.2000000000000D+00  0.0000000000000D+00  0.0000000000000D+00
   222  2.2100000000000D+00  0.0000000000000D+00  0.0000000000000D+00
   223  2.2200000000000D+00  0.0000000000000D+00  0.0000000000000D+00
   224  2.2300000000000D+00  0.0000000000000D+00  0.0000000000000D+00
   225  2.2400000000000D+00  0.0000000000000D+00  0.0000000000000D+00
   226  2.2500000000000D+00  0.0000000000000D+00  0.0000000000000D+00
   227  2.2600000000000D+00  0.0000000000000D+00  0.0000000000000D+00
   228  2.2700000000000D+00  0.0000000000000D+00  0.0000000000000D+00
   229  2.2800000000000D+00  0.0000000000000D+00  0.0000000000000D+00
   230  2.2900000000000D+00  0.0000000000000D+00  0.0000000000000D+00
   231  2.3000000000000D+00  0.0000000000000D+00  0.0000000000000D+00
   232  2.3100000000000D+00  0.0000000000000D+00  0.0000000000000D+00
   233  2.3200000000000D+00  0.0000000000000D+00  0.0000000000000D+00
   234  2.3300000000000D+00  0.0000000000000D+00  0.0000000000000D+00
   235  2.3400000000000D+00  0.0000000000000D+00  0.0000000000000D+00
   236  2.3500000000000D+00  0.0000000000000D+00  0.0000000000000D+00
   237  2.3600000000000D+00  0.0000000000000D+00  0.0000000000000D+00
   238  2.3700000000000D+00  0.0000000000000D+00  0.0000000000000D+00
   239  2.3800000000000D+00  0.0000000000000D+00  0.0000000000000D+00
   240  2.3900000000000D+00  0.0000000000000D+00  0.0000000000000D+00
   241  2.4000000000000D+00  0.0000000000000D+00  0.0000000000000D+00
   242  2.4100000000000D+00  0.0000000000000D+00  0.0000000000000D+00
   243  2.4200000000000D+00  0.0000000000000D+00  0.0000000000000D+00
   244  2.4300000000000D+00  0.0000000000000D+00  0.0000000000000D+00
   245  2.4400000000000D+00  0.0000000000000D+00  0.0000000000000D+00
   246  2.4500000000000D+00  0.0000000000000D+00  0.0000000000000D+00
   247  2.4600000000000D+00  0.0000000000000D+00  0.0000000000000D+00
   248  2.4700000000000D+00  0.0000000000000D+00  0.0000000000000D+00
   249  2.4800000000000D+00  0.0000000000000D+00  0.0000000000000D+00
   250  2.4900000000000D+00  0.0000000000000D+00  0.0000000000000D+00
   251  2.5000000000000D+00  0.0000000000000D+00  0.0000000000000D+00
   252  2.5100000000000D+00  0.0000000000000D+00  0.0000000000000D+00
   253  2.5200000000000D+00  0.0000000000000D+00  0.0000000000000D+00
   254  2.5300000000000D+00  0.0000000000000D+00  0.0000000000000D+00
   255  2.5400000000000D+00  0.0000000000000D+00  0.0000000000000D+00
   256  2.5500000000000D+00  0.0000000000000D+00  0.0000000000000D+00
   257  2.5600000000000D+00  0.0000000000000D+00  0.0000000000000D+00
   258  2.5700000000000D+00  0.0000000000000D+00  0.0000000000000D+00
   259  2.5800000000000D+00  0.0000000000000D+00  0.0000000000000D+00
   260  2.5900000000000D+00  0.0000000000000D+00  0.0000000000000D+00
   261  2.6000000000000D+00  0.0000000000000D+00  0.0000000000000D+00
   262  2.6100000000000D+00  0.0000000000000D+00  0.0000000000000D+00
   263  2.6200000000000D+00  0.0000000000000D+00  0.0000000000000D+00
   264  2.6300000000000D+00  0.0000000000000D+00  0.0000000000000D+00
   265  2.6400000000000D+00  0.0000000000000D+00  0.0000000000000D+00
   266  2.6500000000000D+00  0.0000000000000D+00  0.0000000000000D+00
   267  2.6600000000000D+00  0.0000000000000D+00  0.0000000000000D+00
   268  2.6700000000000D+00  0.0000000000000D+00  0.0000000000000D+00
   269  2.6800000000000D+00  0.0000000000000D+00  0.0000000000000D+00
   270  2.6900000000000D+00  0.0000000000000D+00  0.0000000000000D+00
   271  2.7000000000000D+00  0.0000000000000D+00  0.0000000000000D+00
   272  2.7100000000000D+00  0.0000000000000D+00  0.0000000000000D+00
   273  2.7200000000000D+00  0.0000000000000D+00  0.0000000000000D+00
   274  2.7300000000000D+00  0.0000000000000D+00  0.0000000000000D+00
   275  2.7400000000000D+00  0.0000000000000D+00  0.0000000000000D+00
   276  2.7500000000000D+00  0.0000000000000D+00  0.0000000000000D+00
   277  2.7600000000000D+00  0.0000000000000D+00  0.0000000000000D+00
   278  2.7700000000000D+00  0.0000000000000D+00  0.0000000000000D+00
   279  2.7800000000000D+00  0.0000000000000D+00  0.0000000000000D+00
   280  2.7900000000000D+00  0.0000000000000D+00  0.0000000000000D+00
   281  2.8000000000000D+00  0.0000000000000D+00  0.0000000000000D+00
   282  2.8100000000000D+00  0.0000000000000D+00  0.0000000000000D+00
   283  2.8200000000000D+00  0.0000000000000D+00  0.0000000000000D+00
   284  2.8300000000000D+00  0.0000000000000D+00  0.0000000000000D+00
   285  2.8400000000000D+00  0.0000000000000D+00  0.0000000000000D+00
   286  2.8500000000000D+00  0.0000000000000D+00  0.0000000000000D+00
   287  2.8600000000000D+00  0.0000000000000D+00  0.0000000000000D+00
   288  2.8700000000000D+00  0.0000000000000D+00  0.0000000000000D+00
   289  2.8800000000000D+00  0.0000000000000D+00  0.0000000000000D+00
   290  2.8900000000000D+00  0.0000000000000D+00  0.0000000000000D+00
   291  2.9000000000000D+00  0.0000000000000D+00  0.0000000000000D+00
   292  2.9100000000000D+00  0.0000000000000D+00  0.0000000000000D+00
   293  2.9200000000000D+00  0.0000000000000D+00  0.0000000000000D+00
   294  2.9300000000000D+00  0.0000000000000D+00  0.0000000000000D+00
   295  2.9400000000000D+00  0.0000000000000D+00  0.0000000000000D+00
   296  2.9500000000000D+00  0.0000000000000D+00  0.0000000000000D+00
   297  2.9600000000000D+00  0.0000000000000D+00  0.0000000000000D+00
   298  2.9700000000000D+00  0.0000000000000D+00  0.0000000000000D+00
   299  2.9800000000000D+00  0.0000000000000D+00  0.0000000000000D+00
   300  2.9900000000000D+00  0.0000000000000D+00  0.0000000000000D+00
   301  3.0000000000000D+00  0.0000000000000D+00  0.0000000000000D+00
   302  3.0100000000000D+00  0.0000000000000D+00  0.0000000000000D+00
   303  3.0200000000000D+00  0.0000000000000D+00  0.0000000000000D+00
   304  3.0300000000000D+00  0.0000000000000D+00  0.0000000000000D+00
   305  3.0400000000000D+00  0.0000000000000D+00  0.0000000000000D+00
   306  3.0500000000000D+00  0.0000000000000D+00  0.0000000000000D+00
   307  3.0600000000000D+00  0.0000000000000D+00  0.0000000000000D+00
   308  3.0700000000000D+00  0.0000000000000D+00  0.0000000000000D+00
   309  3.0800000000000D+00  0.0000000000000D+00  0.0000000000000D+00
   310  3.0900000000000D+00  0.0000000000000D+00  0.0000000000000D+00
   311  3.1000000000000D+00  0.0000000000000D+00  0.0000000000000D+00
   312  3.1100000000000D+00  0.0000000000000D+00  0.0000000000000D+00
   313  3.1200000000000D+00  0.0000000000000D+00  0.0000000000000D+00
   314  3.1300000000000D+00  0.0000000000000D+00  0.0000000000000D+00
   315  3.1400000000000D+00  0.0000000000000D+00  0.0000000000000D+00
   316  3.1500000000000D+00  0.0000000000000D+00  0.0000000000000D+00
   317  3.1600000000000D+00  0.0000000000000D+00  0.0000000000000D+00
   318  3.1700000000000D+00  0.0000000000000D+00  0.0000000000000D+00
   319  3.1800000000000D+00  0.0000000000000D+00  0.0000000000000D+00
   320  3.1900000000000D+00  0.0000000000000D+00  0.0000000000000D+00
   321  3.2000000000000D+00  0.0000000000000D+00  0.0000000000000D+00
   322  3.2100000000000D+00  0.0000000000000D+00  0.0000000000000D+00
   323  3.2200000000000D+00  0.0000000000000D+00  0.0000000000000D+00
   324  3.2300000000000D+00  0.0000000000000D+00  0.0000000000000D+00
   325  3.2400000000000D+00  0.0000000000000D+00  0.0000000000000D+00
   326  3.2500000000000D+00  0.0000000000000D+00  0.0000000000000D+00
   327  3.2600000000000D+00  0.0000000000000D+00  0.0000000000000D+00
   328  3.2700000000000D+00  0.0000000000000D+00  0.0000000000000D+00
   329  3.2800000000000D+00  0.0000000000000D+00  0.0000000000000D+00
   330  3.2900000000000D+00  0.0000000000000D+00  0.0000000000000D+00
   331  3.3000000000000D+00  0.0000000000000D+00  0.0000000000000D+00
   332  3.3100000000000D+00  0.0000000000000D+00  0.0000000000000D+00
   333  3.3200000000000D+00  0.0000000000000D+00  0.0000000000000D+00
   334  3.3300000000000D+00  0.0000000000000D+00  0.0000000000000D+00
   335  3.3400000000000D+00  0.0000000000000D+00  0.0000000000000D+00
   336  3.3500000000000D+00  0.0000000000000D+00  0.0000000000000D+00
   337  3.3600000000000D+00  0.0000000000000D+00  0.0000000000000D+00
   338  3.3700000000000D+00  0.0000000000000D+00  0.0000000000000D+00
   339  3.3800000000000D+00  0.0000000000000D+00  0.0000000000000D+00
   340  3.3900000000000D+00  0.0000000000000D+00  0.0000000000000D+00
   341  3.4000000000000D+00  0.0000000000000D+00  0.0000000000000D+00
   342  3.4100000000000D+00  0.0000000000000D+00  0.0000000000000D+00
   343  3.4200000000000D+00  0.0000000000000D+00  0.0000000000000D+00
   344  3.4300000000000D+00  0.0000000000000D+00  0.0000000000000D+00
   345  3.4400000000000D+00  0.0000000000000D+00  0.0000000000000D+00
   346  3.4500000000000D+00  0.0000000000000D+00  0.0000000000000D+00
   347  3.4600000000000D+00  0.0000000000000D+00  0.0000000000000D+00
   348  3.4700000000000D+00  0.0000000000000D+00  0.0000000000000D+00
   349  3.4800000000000D+00  0.0000000000000D+00  0.0000000000000D+00
   350  3.4900000000000D+00  0.0000000000000D+00  0.0000000000000D+00
   351  3.5000000000000D+00  0.0000000000000D+00  0.0000000000000D+00
   352  3.5100000000000D+00  0.0000000000000D+00  0.0000000000000D+00
   353  3.5200000000000D+00  0.0000000000000D+00  0.0000000000000D+00
   354  3.5300000000000D+00  0.0000000000000D+00  0.0000000000000D+00
   355  3.5400000000000D+00  0.0000000000000D+00  0.0000000000000D+00
   356  3.5500000000000D+00  0.0000000000000D+00  0.0000000000000D+00
   357  3.5600000000000D+00  0.0000000000000D+00  0.0000000000000D+00
   358  3.5700000000000D+00  0.0000000000000D+00  0.0000000000000D+00
   359  3.5800000000000D+00  0.0000000000000D+00  0.0000000000000D+00
   360  3.5900000000000D+00  0.0000000000000D+00  0.0000000000000D+00
   361  3.6000000000000D+00  0.0000000000000D+00  0.0000000000000D+00
   362  3.6100000000000D+00  0.0000000000000D+00  0.0000000000000D+00
   363  3.6200000000000D+00  0.0000000000000D+00  0.0000000000000D+00
   364  3.6300000000000D+00  0.0000000000000D+00  0.0000000000000D+00
   365  3.6400000000000D+00  0.0000000000000D+00  0.0000000000000D+00
   366  3.6500000000000D+00  0.0000000000000D+00  0.0000000000000D+00
   367  3.6600000000000D+00  0.0000000000000D+00  0.0000000000000D+00
   368  3.6700000000000D+00  0.0000000000000D+00  0.0000000000000D+00
   369  3.6800000000000D+00  0.0000000000000D+00  0.0000000000000D+00
   370  3.6900000000000D+00  0.0000000000000D+00  0.0000000000000D+00
   371  3.7000000000000D+00  0.0000000000000D+00  0.0000000000000D+00
   372  3.7100000000000D+00  0.0000000000000D+00  0.0000000000000D+00
   373  3.7200000000000D+00  0.0000000000000D+00  0.0000000000000D+00
   374  3.7300000000000D+00  0.0000000000000D+00  0.0000000000000D+00
   375  3.7400000000000D+00  0.0000000000000D+00  0.0000000000000D+00
   376  3.7500000000000D+00  0.0000000000000D+00  0.0000000000000D+00
   377  3.7600000000000D+00  0.0000000000000D+00  0.0000000000000D+00
   378  3.7700000000000D+00  0.0000000000000D+00  0.0000000000000D+00
   379  3.7800000000000D+00  0.0000000000000D+00  0.0000000000000D+00
   380  3.7900000000000D+00  0.0000000000000D+00  0.0000000000000D+00
   381  3.8000000000000D+00  0.0000000000000D+00  0.0000000000000D+00
   382  3.8100000000000D+00  0.0000000000000D+00  0.0000000000000D+00
   383  3.8200000000000D+00  0.0000000000000D+00  0.0000000000000D+00
   384  3.8300000000000D+00  0.0000000000000D+00  0.0000000000000D+00
   385  3.8400000000000D+00  0.0000000000000D+00  0.0000000000000D+00
   386  3.8500000000000D+00  0.0000000000000D+00  0.0000000000000D+00
   387  3.8600000000000D+00  0.0000000000000D+00  0.0000000000000D+00
   388  3.8700000000000D+00  0.0000000000000D+00  0.0000000000000D+00
   389  3.8800000000000D+00  0.0000000000000D+00  0.0000000000000D+00
   390  3.8900000000000D+00  0.0000000000000D+00  0.0000000000000D+00
   391  3.9000000000000D+00  0.0000000000000D+00  0.0000000000000D+00
   392  3.9100000000000D+00  0.0000000000000D+00  0.0000000000000D+00
   393  3.9200000000000D+00  0.0000000000000D+00  0.0000000000000D+00
   394  3.9300000000000D+00  0.0000000000000D+00  0.0000000000000D+00
   395  3.9400000000000D+00  0.0000000000000D+00  0.0000000000000D+00
   396  3.9500000000000D+00  0.0000000000000D+00  0.0000000000000D+00
   397  3.9600000000000D+00  0.0000000000000D+00  0.0000000000000D+00
   398  3.9700000000000D+00  0.0000000000000D+00  0.0000000000000D+00
   399  3.9800000000000D+00  0.0000000000000D+00  0.0000000000000D+00
   400  3.9900000000000D+00  0.0000000000000D+00  0.0000000000000D+00
   401  4.0000000000000D+00  0.0000000000000D+00  0.0000000000000D+00
   402  4.0100000000000D+00  0.0000000000000D+00  0.0000000000000D+00
   403  4.0200000000000D+00  0.0000000000000D+00  0.0000000000000D+00
   404  4.0300000000000D+00  0.0000000000000D+00  0.0000000000000D+00
   405  4.0400000000000D+00  0.0000000000000D+00  0.0000000000000D+00
   406  4.0500000000000D+00  0.0000000000000D+00  0.0000000000000D+00
   407  4.0600000000000D+00  0.0000000000000D+00  0.0000000000000D+00
   408  4.0700000000000D+00  0.0000000000000D+00  0.0000000000000D+00
   409  4.0800000000000D+00  0.0000000000000D+00  0.0000000000000D+00
   410  4.0900000000000D+00  0.0000000000000D+00  0.0000000000000D+00
   411  4.1000000000000D+00  0.0000000000000D+00  0.0000000000000D+00
   412  4.1100000000000D+00  0.0000000000000D+00  0.0000000000000D+00
   413  4.1200000000000D+00  0.0000000000000D+00  0.0000000000000D+00
   414  4.1300000000000D+00  0.0000000000000D+00  0.0000000000000D+00
   415  4.1400000000000D+00  0.0000000000000D+00  0.0000000000000D+00
   416  4.1500000000000D+00  0.0000000000000D+00  0.0000000000000D+00
   417  4.1600000000000D+00  0.0000000000000D+00  0.0000000000000D+00
   418  4.1700000000000D+00  0.0000000000000D+00  0.0000000000000D+00
   419  4.1800000000000D+00  0.0000000000000D+00  0.0000000000000D+00
   420  4.1900000000000D+00  0.0000000000000D+00  0.0000000000000D+00
   421  4.2000000000000D+00  0.0000000000000D+00  0.0000000000000D+00
   422  4.2100000000000D+00  0.0000000000000D+00  0.0000000000000D+00