Na    ONCVPSP-3.3.0  r_core=   1.20708   1.55069
     11.0000      9.0000      220117    zatom,zion,pspd
     8      11   1     4   400     0    pspcod,pspxc,lmax,lloc,mmax,r2well
  3.99000000  0.00000000  0.00000000    rchrg fchrg qchrg
     2     2     0     0     0    nproj
     1     1           extension_switch
   0                         2.6672905472302D+00 -6.7659898366645D-01
     1  0.0000000000000D+00  2.5263985348190D-09  5.7480917248220D-10
     2  1.0000000000000D-02  9.2888822410138D-02  2.1011872459044D-02
     3  2.0000000000000D-02  1.8555666507407D-01  4.2105660826888D-02
     4  3.0000000000000D-02  2.7778124180381D-01  6.3362268683161D-02
     5  4.0000000000000D-02  3.6933769277986D-01  8.4860586728989D-02
     6  5.0000000000000D-02  4.5999739520999D-01  1.0667651564884D-01
     7  6.0000000000000D-02  5.4952688913231D-01  1.2888202371984D-01
     8  7.0000000000000D-02  6.3768695373014D-01  1.5154425006715D-01
     9  8.0000000000000D-02  7.2423186700031D-01  1.7472466388911D-01
    10  9.0000000000000D-02  8.0890887852824D-01  1.9847828927173D-01
    11  1.0000000000000D-01  8.9145792151950D-01  2.2285300438727D-01
    12  1.1000000000000D-01  9.7161158616990D-01  2.4788892293758D-01
    13  1.2000000000000D-01  1.0490953719858D+00  2.7361786467109D-01
    14  1.3000000000000D-01  1.1236282318583D+00  3.0006292068654D-01
    15  1.4000000000000D-01  1.1949234156207D+00  3.2723811805163D-01
    16  1.5000000000000D-01  1.2626896155538D+00  3.5514818702526D-01
    17  1.6000000000000D-01  1.3266324109274D+00  3.8378843289520D-01
    18  1.7000000000000D-01  1.3864560032563D+00  4.1314471314448D-01
    19  1.8000000000000D-01  1.4418652285928D+00  4.4319351935722D-01
    20  1.9000000000000D-01  1.4925678279483D+00  4.7390216198456D-01
    21  2.0000000000000D-01  1.5382769519237D+00  5.0522905483030D-01
    22  2.1000000000000D-01  1.5787138708992D+00  5.3712409490168D-01
    23  2.2000000000000D-01  1.6136108577723D+00  5.6952913211647D-01
    24  2.3000000000000D-01  1.6427142063005D+00  6.0237852228170D-01
    25  2.4000000000000D-01  1.6657873446687D+00  6.3559975577237D-01
    26  2.5000000000000D-01  1.6826140010197D+00  6.6911415345597D-01
    27  2.6000000000000D-01  1.6930013754040D+00  7.0283762064010D-01
    28  2.7000000000000D-01  1.6967832709687D+00  7.3668144917664D-01
    29  2.8000000000000D-01  1.6938231362442D+00  7.7055315734493D-01
    30  2.9000000000000D-01  1.6840169701251D+00  8.0435735676436D-01
    31  3.0000000000000D-01  1.6672960415948D+00  8.3799663535860D-01
    32  3.1000000000000D-01  1.6436293774075D+00  8.7137244531174D-01
    33  3.2000000000000D-01  1.6130259728206D+00  9.0438598502209D-01
    34  3.3000000000000D-01  1.5755366830386D+00  9.3693906427008D-01
    35  3.4000000000000D-01  1.5312557562628D+00  9.6893494217074D-01
    36  3.5000000000000D-01  1.4803219731077D+00  1.0002791279720D+00
    37  3.6000000000000D-01  1.4229193615864D+00  1.0308801353812D+00
    38  3.7000000000000D-01  1.3592774618453D+00  1.0606501818470D+00
    39  3.8000000000000D-01  1.2896711202672D+00  1.0895058250751D+00
    40  3.9000000000000D-01  1.2144197983945D+00  1.1173685300135D+00
    41  4.0000000000000D-01  1.1338863882806D+00  1.1441651605803D+00
    42  4.1000000000000D-01  1.0484755322660D+00  1.1698283915191D+00
    43  4.2000000000000D-01  9.5863145172061D-01  1.1942970369343D+00
    44  4.3000000000000D-01  8.6483529589210D-01  1.2175162932672D+00
    45  4.4000000000000D-01  7.6760202858078D-01  1.2394378957021D+00
    46  4.5000000000000D-01  6.6747687680997D-01  1.2600201882307D+00
    47  4.6000000000000D-01  5.6503137190461D-01  1.2792281088259D+00
    48  4.7000000000000D-01  4.6085901933028D-01  1.2970330923767D+00
    49  4.8000000000000D-01  3.5557063919641D-01  1.3134128951851D+00
    50  4.9000000000000D-01  2.4978942441149D-01  1.3283513459189D+00
    51  5.0000000000000D-01  1.4414576801401D-01  1.3418380289306D+00
    52  5.1000000000000D-01  3.9271915126180D-02  1.3538679067744D+00
    53  5.2000000000000D-01 -6.4203501778202D-02  1.3644408895789D+00
    54  5.3000000000000D-01 -1.6566098308628D-01  1.3735613596358D+00
    55  5.4000000000000D-01 -2.6449567479209D-01  1.3812376601490D+00
    56  5.5000000000000D-01 -3.6012280989807D-01  1.3874815575370D+00
    57  5.6000000000000D-01 -4.5198301449046D-01  1.3923076869891D+00
    58  5.7000000000000D-01 -5.3954741525078D-01  1.3957329911430D+00
    59  5.8000000000000D-01 -6.2232248674378D-01  1.3977761617699D+00
    60  5.9000000000000D-01 -6.9985457924542D-01  1.3984570942250D+00
    61  6.0000000000000D-01 -7.7173407108445D-01  1.3977963641498D+00
    62  6.1000000000000D-01 -8.3759909348902D-01  1.3958147354984D+00
    63  6.2000000000000D-01 -8.9713878062869D-01  1.3925327084121D+00
    64  6.3000000000000D-01 -9.5009600297198D-01  1.3879701147905D+00
    65  6.4000000000000D-01 -9.9626954806685D-01  1.3821457686104D+00
    66  6.5000000000000D-01 -1.0355157193940D+00  1.3750771771491D+00
    67  6.6000000000000D-01 -1.0677493309513D+00  1.3667803182671D+00
    68  6.7000000000000D-01 -1.0929440825625D+00  1.3572694878356D+00
    69  6.8000000000000D-01 -1.1111323085239D+00  1.3465572202573D+00
    70  6.9000000000000D-01 -1.1224040999987D+00  1.3346542838385D+00
    71  7.0000000000000D-01 -1.1269058094119D+00  1.3215697515578D+00
    72  7.1000000000000D-01 -1.1248379528869D+00  1.3073111465479D+00
    73  7.2000000000000D-01 -1.1164525344382D+00  1.2918846603815D+00
    74  7.3000000000000D-01 -1.1020498230333D+00  1.2752954410517D+00
    75  7.4000000000000D-01 -1.0819746206817D+00  1.2575479463781D+00
    76  7.5000000000000D-01 -1.0566120663037D+00  1.2386463574656D+00
    77  7.6000000000000D-01 -1.0263830261911D+00  1.2185950458170D+00
    78  7.7000000000000D-01 -9.9173912727094D-01  1.1973990867614D+00
    79  7.8000000000000D-01 -9.5315749411898D-01  1.1750648110248D+00
    80  7.9000000000000D-01 -9.1113525458303D-01  1.1516003855522D+00
    81  8.0000000000000D-01 -8.6618388197726D-01  1.1270164141026D+00
    82  8.1000000000000D-01 -8.1882344401774D-01  1.1013265476815D+00
    83  8.2000000000000D-01 -7.6957682995886D-01  1.0745480945722D+00
    84  8.3000000000000D-01 -7.1896402773485D-01  1.0467026195652D+00
    85  8.4000000000000D-01 -6.6749652230002D-01  1.0178165219827D+00
    86  8.5000000000000D-01 -6.1567188479793D-01  9.8792158224476D-01
    87  8.6000000000000D-01 -5.6396861968813D-01  9.5705546702550D-01
    88  8.7000000000000D-01 -5.1284133354840D-01  9.2526218350101D-01
    89  8.8000000000000D-01 -4.6271628499142D-01  8.9259247378816D-01
    90  8.9000000000000D-01 -4.1398737004049D-01  8.5910414140618D-01
    91  9.0000000000000D-01 -3.6701259146439D-01  8.2486230245365D-01
    92  9.1000000000000D-01 -3.2211105405260D-01  7.8993955516925D-01
    93  9.2000000000000D-01 -2.7956052070339D-01  7.5441606262226D-01
    94  9.3000000000000D-01 -2.3959555659377D-01  7.1837954444364D-01
    95  9.4000000000000D-01 -2.0240628070250D-01  6.8192517474432D-01
    96  9.5000000000000D-01 -1.6813773568546D-01  6.4515538465490D-01
    97  9.6000000000000D-01 -1.3688987857660D-01  6.0817956925656D-01
    98  9.7000000000000D-01 -1.0871818640927D-01  5.7111369999240D-01
    99  9.8000000000000D-01 -8.3634862257004D-02  5.3407984500910D-01
   100  9.9000000000000D-01 -6.1610618943719D-02  4.9720560119001D-01
   101  1.0000000000000D+00 -4.2577009697136D-02  4.6062344291398D-01
   102  1.0100000000000D+00 -2.6429267390124D-02  4.2446999379638D-01
   103  1.0200000000000D+00 -1.3029606934489D-02  3.8888522880676D-01
   104  1.0300000000000D+00 -2.2109387943695D-03  3.5401161522178D-01
   105  1.0400000000000D+00  6.2190639776149D-03  3.1999320177217D-01
   106  1.0500000000000D+00  1.2473608078344D-02  2.8697466620262D-01
   107  1.0600000000000D+00  1.6782198625468D-02  2.5510033212553D-01
   108  1.0700000000000D+00  1.9385904379032D-02  2.2451316658218D-01
   109  1.0800000000000D+00  2.0532542081013D-02  1.9535377011228D-01
   110  1.0900000000000D+00  2.0471853730976D-02  1.6775937134043D-01
   111  1.1000000000000D+00  1.9450751118208D-02  1.4186283817618D-01
   112  1.1100000000000D+00  1.7708701077096D-02  1.1779171759008D-01
   113  1.1200000000000D+00  1.5473323315738D-02  9.5667315669850D-02
   114  1.1300000000000D+00  1.2956269562828D-02  7.5603829158345D-02
   115  1.1400000000000D+00  1.0349450230315D-02  5.7707539262949D-02
   116  1.1500000000000D+00  7.8216689295662D-03  4.2076077572419D-02
   117  1.1600000000000D+00  5.5157205512567D-03  2.8797773162157D-02
   118  1.1700000000000D+00  3.5472680460423D-03  1.7956365254438D-02
   119  1.1800000000000D+00  1.9939406563589D-03  9.5948419689199D-03
   120  1.1900000000000D+00  9.1329423821413D-04  3.7895229464955D-03
   121  1.2000000000000D+00  3.8003435958933D-04  7.5080612464146D-04
   122  1.2100000000000D+00  1.6134066764458D-04 -1.3665255582462D-04
   123  1.2200000000000D+00  1.4586098729164D-05 -3.3985650994206D-05
   124  1.2300000000000D+00 -1.3909426009411D-05  4.2493517957527D-05
   125  1.2400000000000D+00  3.1003350786714D-06 -6.5794431755327D-06
   126  1.2500000000000D+00  7.4589256510172D-07 -1.7572414937292D-06
   127  1.2600000000000D+00 -5.7725239068009D-07  8.8282796762837D-08
   128  1.2700000000000D+00  0.0000000000000D+00  0.0000000000000D+00
   129  1.2800000000000D+00  0.0000000000000D+00  0.0000000000000D+00
   130  1.2900000000000D+00  0.0000000000000D+00  0.0000000000000D+00
   131  1.3000000000000D+00  0.0000000000000D+00  0.0000000000000D+00
   132  1.3100000000000D+00  0.0000000000000D+00  0.0000000000000D+00
   133  1.3200000000000D+00  0.0000000000000D+00  0.0000000000000D+00
   134  1.3300000000000D+00  0.0000000000000D+00  0.0000000000000D+00
   135  1.3400000000000D+00  0.0000000000000D+00  0.0000000000000D+00
   136  1.3500000000000D+00  0.0000000000000D+00  0.0000000000000D+00
   137  1.3600000000000D+00  0.0000000000000D+00  0.0000000000000D+00
   138  1.3700000000000D+00  0.0000000000000D+00  0.0000000000000D+00
   139  1.3800000000000D+00  0.0000000000000D+00  0.0000000000000D+00
   140  1.3900000000000D+00  0.0000000000000D+00  0.0000000000000D+00
   141  1.4000000000000D+00  0.0000000000000D+00  0.0000000000000D+00
   142  1.4100000000000D+00  0.0000000000000D+00  0.0000000000000D+00
   143  1.4200000000000D+00  0.0000000000000D+00  0.0000000000000D+00
   144  1.4300000000000D+00  0.0000000000000D+00  0.0000000000000D+00
   145  1.4400000000000D+00  0.0000000000000D+00  0.0000000000000D+00
   146  1.4500000000000D+00  0.0000000000000D+00  0.0000000000000D+00
   147  1.4600000000000D+00  0.0000000000000D+00  0.0000000000000D+00
   148  1.4700000000000D+00  0.0000000000000D+00  0.0000000000000D+00
   149  1.4800000000000D+00  0.0000000000000D+00  0.0000000000000D+00
   150  1.4900000000000D+00  0.0000000000000D+00  0.0000000000000D+00
   151  1.5000000000000D+00  0.0000000000000D+00  0.0000000000000D+00
   152  1.5100000000000D+00  0.0000000000000D+00  0.0000000000000D+00
   153  1.5200000000000D+00  0.0000000000000D+00  0.0000000000000D+00
   154  1.5300000000000D+00  0.0000000000000D+00  0.0000000000000D+00
   155  1.5400000000000D+00  0.0000000000000D+00  0.0000000000000D+00
   156  1.5500000000000D+00  0.0000000000000D+00  0.0000000000000D+00
   157  1.5600000000000D+00  0.0000000000000D+00  0.0000000000000D+00
   158  1.5700000000000D+00  0.0000000000000D+00  0.0000000000000D+00
   159  1.5800000000000D+00  0.0000000000000D+00  0.0000000000000D+00
   160  1.5900000000000D+00  0.0000000000000D+00  0.0000000000000D+00
   161  1.6000000000000D+00  0.0000000000000D+00  0.0000000000000D+00
   162  1.6100000000000D+00  0.0000000000000D+00  0.0000000000000D+00
   163  1.6200000000000D+00  0.0000000000000D+00  0.0000000000000D+00
   164  1.6300000000000D+00  0.0000000000000D+00  0.0000000000000D+00
   165  1.6400000000000D+00  0.0000000000000D+00  0.0000000000000D+00
   166  1.6500000000000D+00  0.0000000000000D+00  0.0000000000000D+00
   167  1.6600000000000D+00  0.0000000000000D+00  0.0000000000000D+00
   168  1.6700000000000D+00  0.0000000000000D+00  0.0000000000000D+00
   169  1.6800000000000D+00  0.0000000000000D+00  0.0000000000000D+00
   170  1.6900000000000D+00  0.0000000000000D+00  0.0000000000000D+00
   171  1.7000000000000D+00  0.0000000000000D+00  0.0000000000000D+00
   172  1.7100000000000D+00  0.0000000000000D+00  0.0000000000000D+00
   173  1.7200000000000D+00  0.0000000000000D+00  0.0000000000000D+00
   174  1.7300000000000D+00  0.0000000000000D+00  0.0000000000000D+00
   175  1.7400000000000D+00  0.0000000000000D+00  0.0000000000000D+00
   176  1.7500000000000D+00  0.0000000000000D+00  0.0000000000000D+00
   177  1.7600000000000D+00  0.0000000000000D+00  0.0000000000000D+00
   178  1.7700000000000D+00  0.0000000000000D+00  0.0000000000000D+00
   179  1.7800000000000D+00  0.0000000000000D+00  0.0000000000000D+00
   180  1.7900000000000D+00  0.0000000000000D+00  0.0000000000000D+00
   181  1.8000000000000D+00  0.0000000000000D+00  0.0000000000000D+00
   182  1.8100000000000D+00  0.0000000000000D+00  0.0000000000000D+00
   183  1.8200000000000D+00  0.0000000000000D+00  0.0000000000000D+00
   184  1.8300000000000D+00  0.0000000000000D+00  0.0000000000000D+00
   185  1.8400000000000D+00  0.0000000000000D+00  0.0000000000000D+00
   186  1.8500000000000D+00  0.0000000000000D+00  0.0000000000000D+00
   187  1.8600000000000D+00  0.0000000000000D+00  0.0000000000000D+00
   188  1.8700000000000D+00  0.0000000000000D+00  0.0000000000000D+00
   189  1.8800000000000D+00  0.0000000000000D+00  0.0000000000000D+00
   190  1.8900000000000D+00  0.0000000000000D+00  0.0000000000000D+00
   191  1.9000000000000D+00  0.0000000000000D+00  0.0000000000000D+00
   192  1.9100000000000D+00  0.0000000000000D+00  0.0000000000000D+00
   193  1.9200000000000D+00  0.0000000000000D+00  0.0000000000000D+00
   194  1.9300000000000D+00  0.0000000000000D+00  0.0000000000000D+00
   195  1.9400000000000D+00  0.0000000000000D+00  0.0000000000000D+00
   196  1.9500000000000D+00  0.0000000000000D+00  0.0000000000000D+00
   197  1.9600000000000D+00  0.0000000000000D+00  0.0000000000000D+00
   198  1.9700000000000D+00  0.0000000000000D+00  0.0000000000000D+00
   199  1.9800000000000D+00  0.0000000000000D+00  0.0000000000000D+00
   200  1.9900000000000D+00  0.0000000000000D+00  0.0000000000000D+00
   201  2.0000000000000D+00  0.0000000000000D+00  0.0000000000000D+00
   202  2.0100000000000D+00  0.0000000000000D+00  0.0000000000000D+00
   203  2.0200000000000D+00  0.0000000000000D+00  0.0000000000000D+00
   204  2.0300000000000D+00  0.0000000000000D+00  0.0000000000000D+00
   205  2.0400000000000D+00  0.0000000000000D+00  0.0000000000000D+00
   206  2.0500000000000D+00  0.0000000000000D+00  0.0000000000000D+00
   207  2.0600000000000D+00  0.0000000000000D+00  0.0000000000000D+00
   208  2.0700000000000D+00  0.0000000000000D+00  0.0000000000000D+00
   209  2.0800000000000D+00  0.0000000000000D+00  0.0000000000000D+00
   210  2.0900000000000D+00  0.0000000000000D+00  0.0000000000000D+00
   211  2.1000000000000D+00  0.0000000000000D+00  0.0000000000000D+00
   212  2.1100000000000D+00  0.0000000000000D+00  0.0000000000000D+00
   213  2.1200000000000D+00  0.0000000000000D+00  0.0000000000000D+00
   214  2.1300000000000D+00  0.0000000000000D+00  0.0000000000000D+00
   215  2.1400000000000D+00  0.0000000000000D+00  0.0000000000000D+00
   216  2.1500000000000D+00  0.0000000000000D+00  0.0000000000000D+00
   217  2.1600000000000D+00  0.0000000000000D+00  0.0000000000000D+00
   218  2.1700000000000D+00  0.0000000000000D+00  0.0000000000000D+00
   219  2.1800000000000D+00  0.0000000000000D+00  0.0000000000000D+00
   220  2.1900000000000D+00  0.0000000000000D+00  0.0000000000000D+00
   221  2.2000000000000D+00  0.0000000000000D+00  0.0000000000000D+00
   222  2.2100000000000D+00  0.0000000000000D+00  0.0000000000000D+00
   223  2.2200000000000D+00  0.0000000000000D+00  0.0000000000000D+00
   224  2.2300000000000D+00  0.0000000000000D+00  0.0000000000000D+00
   225  2.2400000000000D+00  0.0000000000000D+00  0.0000000000000D+00
   226  2.2500000000000D+00  0.0000000000000D+00  0.0000000000000D+00
   227  2.2600000000000D+00  0.0000000000000D+00  0.0000000000000D+00
   228  2.2700000000000D+00  0.0000000000000D+00  0.0000000000000D+00
   229  2.2800000000000D+00  0.0000000000000D+00  0.0000000000000D+00
   230  2.2900000000000D+00  0.0000000000000D+00  0.0000000000000D+00
   231  2.3000000000000D+00  0.0000000000000D+00  0.0000000000000D+00
   232  2.3100000000000D+00  0.0000000000000D+00  0.0000000000000D+00
   233  2.3200000000000D+00  0.0000000000000D+00  0.0000000000000D+00
   234  2.3300000000000D+00  0.0000000000000D+00  0.0000000000000D+00
   235  2.3400000000000D+00  0.0000000000000D+00  0.0000000000000D+00
   236  2.3500000000000D+00  0.0000000000000D+00  0.0000000000000D+00
   237  2.3600000000000D+00  0.0000000000000D+00  0.0000000000000D+00
   238  2.3700000000000D+00  0.0000000000000D+00  0.0000000000000D+00
   239  2.3800000000000D+00  0.0000000000000D+00  0.0000000000000D+00
   240  2.3900000000000D+00  0.0000000000000D+00  0.0000000000000D+00
   241  2.4000000000000D+00  0.0000000000000D+00  0.0000000000000D+00
   242  2.4100000000000D+00  0.0000000000000D+00  0.0000000000000D+00
   243  2.4200000000000D+00  0.0000000000000D+00  0.0000000000000D+00
   244  2.4300000000000D+00  0.0000000000000D+00  0.0000000000000D+00
   245  2.4400000000000D+00  0.0000000000000D+00  0.0000000000000D+00
   246  2.4500000000000D+00  0.0000000000000D+00  0.0000000000000D+00
   247  2.4600000000000D+00  0.0000000000000D+00  0.0000000000000D+00
   248  2.4700000000000D+00  0.0000000000000D+00  0.0000000000000D+00
   249  2.4800000000000D+00  0.0000000000000D+00  0.0000000000000D+00
   250  2.4900000000000D+00  0.0000000000000D+00  0.0000000000000D+00
   251  2.5000000000000D+00  0.0000000000000D+00  0.0000000000000D+00
   252  2.5100000000000D+00  0.0000000000000D+00  0.0000000000000D+00
   253  2.5200000000000D+00  0.0000000000000D+00  0.0000000000000D+00
   254  2.5300000000000D+00  0.0000000000000D+00  0.0000000000000D+00
   255  2.5400000000000D+00  0.0000000000000D+00  0.0000000000000D+00
   256  2.5500000000000D+00  0.0000000000000D+00  0.0000000000000D+00
   257  2.5600000000000D+00  0.0000000000000D+00  0.0000000000000D+00
   258  2.5700000000000D+00  0.0000000000000D+00  0.0000000000000D+00
   259  2.5800000000000D+00  0.0000000000000D+00  0.0000000000000D+00
   260  2.5900000000000D+00  0.0000000000000D+00  0.0000000000000D+00
   261  2.6000000000000D+00  0.0000000000000D+00  0.0000000000000D+00
   262  2.6100000000000D+00  0.0000000000000D+00  0.0000000000000D+00
   263  2.6200000000000D+00  0.0000000000000D+00  0.0000000000000D+00
   264  2.6300000000000D+00  0.0000000000000D+00  0.0000000000000D+00
   265  2.6400000000000D+00  0.0000000000000D+00  0.0000000000000D+00
   266  2.6500000000000D+00  0.0000000000000D+00  0.0000000000000D+00
   267  2.6600000000000D+00  0.0000000000000D+00  0.0000000000000D+00
   268  2.6700000000000D+00  0.0000000000000D+00  0.0000000000000D+00
   269  2.6800000000000D+00  0.0000000000000D+00  0.0000000000000D+00
   270  2.6900000000000D+00  0.0000000000000D+00  0.0000000000000D+00
   271  2.7000000000000D+00  0.0000000000000D+00  0.0000000000000D+00
   272  2.7100000000000D+00  0.0000000000000D+00  0.0000000000000D+00
   273  2.7200000000000D+00  0.0000000000000D+00  0.0000000000000D+00
   274  2.7300000000000D+00  0.0000000000000D+00  0.0000000000000D+00
   275  2.7400000000000D+00  0.0000000000000D+00  0.0000000000000D+00
   276  2.7500000000000D+00  0.0000000000000D+00  0.0000000000000D+00
   277  2.7600000000000D+00  0.0000000000000D+00  0.0000000000000D+00
   278  2.7700000000000D+00  0.0000000000000D+00  0.0000000000000D+00
   279  2.7800000000000D+00  0.0000000000000D+00  0.0000000000000D+00
   280  2.7900000000000D+00  0.0000000000000D+00  0.0000000000000D+00
   281  2.8000000000000D+00  0.0000000000000D+00  0.0000000000000D+00
   282  2.8100000000000D+00  0.0000000000000D+00  0.0000000000000D+00
   283  2.8200000000000D+00  0.0000000000000D+00  0.0000000000000D+00
   284  2.8300000000000D+00  0.0000000000000D+00  0.0000000000000D+00
   285  2.8400000000000D+00  0.0000000000000D+00  0.0000000000000D+00
   286  2.8500000000000D+00  0.0000000000000D+00  0.0000000000000D+00
   287  2.8600000000000D+00  0.0000000000000D+00  0.0000000000000D+00
   288  2.8700000000000D+00  0.0000000000000D+00  0.0000000000000D+00
   289  2.8800000000000D+00  0.0000000000000D+00  0.0000000000000D+00
   290  2.8900000000000D+00  0.0000000000000D+00  0.0000000000000D+00
   291  2.9000000000000D+00  0.0000000000000D+00  0.0000000000000D+00
   292  2.9100000000000D+00  0.0000000000000D+00  0.0000000000000D+00
   293  2.9200000000000D+00  0.0000000000000D+00  0.0000000000000D+00
   294  2.9300000000000D+00  0.0000000000000D+00  0.0000000000000D+00
   295  2.9400000000000D+00  0.0000000000000D+00  0.0000000000000D+00
   296  2.9500000000000D+00  0.0000000000000D+00  0.0000000000000D+00
   297  2.9600000000000D+00  0.0000000000000D+00  0.0000000000000D+00
   298  2.9700000000000D+00  0.0000000000000D+00  0.0000000000000D+00
   299  2.9800000000000D+00  0.0000000000000D+00  0.0000000000000D+00
   300  2.9900000000000D+00  0.0000000000000D+00  0.0000000000000D+00
   301  3.0000000000000D+00  0.0000000000000D+00  0.0000000000000D+00
   302  3.0100000000000D+00  0.0000000000000D+00  0.0000000000000D+00
   303  3.0200000000000D+00  0.0000000000000D+00  0.0000000000000D+00
   304  3.0300000000000D+00  0.0000000000000D+00  0.0000000000000D+00
   305  3.0400000000000D+00  0.0000000000000D+00  0.0000000000000D+00
   306  3.0500000000000D+00  0.0000000000000D+00  0.0000000000000D+00
   307  3.0600000000000D+00  0.0000000000000D+00  0.0000000000000D+00
   308  3.0700000000000D+00  0.0000000000000D+00  0.0000000000000D+00
   309  3.0800000000000D+00  0.0000000000000D+00  0.0000000000000D+00
   310  3.0900000000000D+00  0.0000000000000D+00  0.0000000000000D+00
   311  3.1000000000000D+00  0.0000000000000D+00  0.0000000000000D+00
   312  3.1100000000000D+00  0.0000000000000D+00  0.0000000000000D+00
   313  3.1200000000000D+00  0.0000000000000D+00  0.0000000000000D+00
   314  3.1300000000000D+00  0.0000000000000D+00  0.0000000000000D+00
   315  3.1400000000000D+00  0.0000000000000D+00  0.0000000000000D+00
   316  3.1500000000000D+00  0.0000000000000D+00  0.0000000000000D+00
   317  3.1600000000000D+00  0.0000000000000D+00  0.0000000000000D+00
   318  3.1700000000000D+00  0.0000000000000D+00  0.0000000000000D+00
   319  3.1800000000000D+00  0.0000000000000D+00  0.0000000000000D+00
   320  3.1900000000000D+00  0.0000000000000D+00  0.0000000000000D+00
   321  3.2000000000000D+00  0.0000000000000D+00  0.0000000000000D+00
   322  3.2100000000000D+00  0.0000000000000D+00  0.0000000000000D+00
   323  3.2200000000000D+00  0.0000000000000D+00  0.0000000000000D+00
   324  3.2300000000000D+00  0.0000000000000D+00  0.0000000000000D+00
   325  3.2400000000000D+00  0.0000000000000D+00  0.0000000000000D+00
   326  3.2500000000000D+00  0.0000000000000D+00  0.0000000000000D+00
   327  3.2600000000000D+00  0.0000000000000D+00  0.0000000000000D+00
   328  3.2700000000000D+00  0.0000000000000D+00  0.0000000000000D+00
   329  3.2800000000000D+00  0.0000000000000D+00  0.0000000000000D+00
   330  3.2900000000000D+00  0.0000000000000D+00  0.0000000000000D+00
   331  3.3000000000000D+00  0.0000000000000D+00  0.0000000000000D+00
   332  3.3100000000000D+00  0.0000000000000D+00  0.0000000000000D+00
   333  3.3200000000000D+00  0.0000000000000D+00  0.0000000000000D+00
   334  3.3300000000000D+00  0.0000000000000D+00  0.0000000000000D+00
   335  3.3400000000000D+00  0.0000000000000D+00  0.0000000000000D+00
   336  3.3500000000000D+00  0.0000000000000D+00  0.0000000000000D+00
   337  3.3600000000000D+00  0.0000000000000D+00  0.0000000000000D+00
   338  3.3700000000000D+00  0.0000000000000D+00  0.0000000000000D+00
   339  3.3800000000000D+00  0.0000000000000D+00  0.0000000000000D+00
   340  3.3900000000000D+00  0.0000000000000D+00  0.0000000000000D+00
   341  3.4000000000000D+00  0.0000000000000D+00  0.0000000000000D+00
   342  3.4100000000000D+00  0.0000000000000D+00  0.0000000000000D+00
   343  3.4200000000000D+00  0.0000000000000D+00  0.0000000000000D+00
   344  3.4300000000000D+00  0.0000000000000D+00  0.0000000000000D+00
   345  3.4400000000000D+00  0.0000000000000D+00  0.0000000000000D+00
   346  3.4500000000000D+00  0.0000000000000D+00  0.0000000000000D+00
   347  3.4600000000000D+00  0.0000000000000D+00  0.0000000000000D+00
   348  3.4700000000000D+00  0.0000000000000D+00  0.0000000000000D+00
   349  3.4800000000000D+00  0.0000000000000D+00  0.0000000000000D+00
   350  3.4900000000000D+00  0.0000000000000D+00  0.0000000000000D+00
   351  3.5000000000000D+00  0.0000000000000D+00  0.0000000000000D+00
   352  3.5100000000000D+00  0.0000000000000D+00  0.0000000000000D+00
   353  3.5200000000000D+00  0.0000000000000D+00  0.0000000000000D+00
   354  3.5300000000000D+00  0.0000000000000D+00  0.0000000000000D+00
   355  3.5400000000000D+00  0.0000000000000D+00  0.0000000000000D+00
   356  3.5500000000000D+00  0.0000000000000D+00  0.0000000000000D+00
   357  3.5600000000000D+00  0.0000000000000D+00  0.0000000000000D+00
   358  3.5700000000000D+00  0.0000000000000D+00  0.0000000000000D+00
   359  3.5800000000000D+00  0.0000000000000D+00  0.0000000000000D+00
   360  3.5900000000000D+00  0.0000000000000D+00  0.0000000000000D+00
   361  3.6000000000000D+00  0.0000000000000D+00  0.0000000000000D+00
   362  3.6100000000000D+00  0.0000000000000D+00  0.0000000000000D+00
   363  3.6200000000000D+00  0.0000000000000D+00  0.0000000000000D+00
   364  3.6300000000000D+00  0.0000000000000D+00  0.0000000000000D+00
   365  3.6400000000000D+00  0.0000000000000D+00  0.0000000000000D+00
   366  3.6500000000000D+00  0.0000000000000D+00  0.0000000000000D+00
   367  3.6600000000000D+00  0.0000000000000D+00  0.0000000000000D+00
   368  3.6700000000000D+00  0.0000000000000D+00  0.0000000000000D+00
   369  3.6800000000000D+00  0.0000000000000D+00  0.0000000000000D+00
   370  3.6900000000000D+00  0.0000000000000D+00  0.0000000000000D+00
   371  3.7000000000000D+00  0.0000000000000D+00  0.0000000000000D+00
   372  3.7100000000000D+00  0.0000000000000D+00  0.0000000000000D+00
   373  3.7200000000000D+00  0.0000000000000D+00  0.0000000000000D+00
   374  3.7300000000000D+00  0.0000000000000D+00  0.0000000000000D+00
   375  3.7400000000000D+00  0.0000000000000D+00  0.0000000000000D+00
   376  3.7500000000000D+00  0.0000000000000D+00  0.0000000000000D+00
   377  3.7600000000000D+00  0.0000000000000D+00  0.0000000000000D+00
   378  3.7700000000000D+00  0.0000000000000D+00  0.0000000000000D+00
   379  3.7800000000000D+00  0.0000000000000D+00  0.0000000000000D+00
   380  3.7900000000000D+00  0.0000000000000D+00  0.0000000000000D+00
   381  3.8000000000000D+00  0.0000000000000D+00  0.0000000000000D+00
   382  3.8100000000000D+00  0.0000000000000D+00  0.0000000000000D+00
   383  3.8200000000000D+00  0.0000000000000D+00  0.0000000000000D+00
   384  3.8300000000000D+00  0.0000000000000D+00  0.0000000000000D+00
   385  3.8400000000000D+00  0.0000000000000D+00  0.0000000000000D+00
   386  3.8500000000000D+00  0.0000000000000D+00  0.0000000000000D+00
   387  3.8600000000000D+00  0.0000000000000D+00  0.0000000000000D+00
   388  3.8700000000000D+00  0.0000000000000D+00  0.0000000000000D+00
   389  3.8800000000000D+00  0.0000000000000D+00  0.0000000000000D+00
   390  3.8900000000000D+00  0.0000000000000D+00  0.0000000000000D+00
   391  3.9000000000000D+00  0.0000000000000D+00  0.0000000000000D+00
   392  3.9100000000000D+00  0.0000000000000D+00  0.0000000000000D+00
   393  3.9200000000000D+00  0.0000000000000D+00  0.0000000000000D+00
   394  3.9300000000000D+00  0.0000000000000D+00  0.0000000000000D+00
   395  3.9400000000000D+00  0.0000000000000D+00  0.0000000000000D+00
   396  3.9500000000000D+00  0.0000000000000D+00  0.0000000000000D+00
   397  3.9600000000000D+00  0.0000000000000D+00  0.0000000000000D+00
   398  3.9700000000000D+00  0.0000000000000D+00  0.0000000000000D+00
   399  3.9800000000000D+00  0.0000000000000D+00  0.0000000000000D+00
   400  3.9900000000000D+00  0.0000000000000D+00  0.0000000000000D+00
   1                        -6.7437181137939D+00 -2.4073650930197D+00
     1  0.0000000000000D+00  5.0871604151403D-10 -6.6125989406363D-10
     2  1.0000000000000D-02  2.2080919807322D-03 -9.8866469130798D-04
     3  2.0000000000000D-02  8.8210943347535D-03 -3.9453327349803D-03
     4  3.0000000000000D-02  1.9805242218286D-02 -8.8420867389214D-03
     5  4.0000000000000D-02  3.5104447032392D-02 -1.5632599702049D-02
     6  5.0000000000000D-02  5.4640574718462D-02 -2.4252436793043D-02
     7  6.0000000000000D-02  7.8313833544203D-02 -3.4619475446624D-02
     8  7.0000000000000D-02  1.0600326956012D-01 -4.6634441396278D-02
     9  8.0000000000000D-02  1.3756736739776D-01 -6.0181557601044D-02
    10  9.0000000000000D-02  1.7284475358029D-01 -7.5129302376005D-02
    11  1.0000000000000D-01  2.1165499902595D-01 -9.1331272405830D-02
    12  1.1000000000000D-01  2.5379951694652D-01 -1.0862714570986D-01
    13  1.2000000000000D-01  2.9906255187904D-01 -1.2684373903996D-01
    14  1.3000000000000D-01  3.4721225514063D-01 -1.4579615363049D-01
    15  1.4000000000000D-01  3.9800184156592D-01 -1.6528900268749D-01
    16  1.5000000000000D-01  4.5117082197601D-01 -1.8511771350271D-01
    17  1.6000000000000D-01  5.0644630543878D-01 -2.0506989661201D-01
    18  1.7000000000000D-01  5.6354436501484D-01 -2.2492677398797D-01
    19  1.8000000000000D-01  6.2217146034346D-01 -2.4446465786707D-01
    20  1.9000000000000D-01  6.8202591010995D-01 -2.6345647146394D-01
    21  2.0000000000000D-01  7.4279940715217D-01 -2.8167330252242D-01
    22  2.1000000000000D-01  8.0417856871112D-01 -2.9888598039650D-01