Sn    ONCVPSP-3.3.0  r_core=   2.27326   2.62311   1.85601
     50.0000     14.0000      220117    zatom,zion,pspd
     8      11   2     4   600     0    pspcod,pspxc,lmax,lloc,mmax,r2well
  5.99000000  0.00000000  0.00000000    rchrg fchrg qchrg
     2     2     2     0     0    nproj
     1     1           extension_switch
   0                         5.5821840262166D+00  7.4896945785689D-01
     1  0.0000000000000D+00  7.3779871101465D-13 -5.6561838546187D-12
     2  1.0000000000000D-02  1.3703030313851D-02  7.2511158473316D-03
     3  2.0000000000000D-02  2.7418287692021D-02  1.4452116486337D-02
     4  3.0000000000000D-02  4.1157951256521D-02  2.1553077608043D-02
     5  4.0000000000000D-02  5.4934104356684D-02  2.8504456119266D-02
     6  5.0000000000000D-02  6.8758686962492D-02  3.5257279294660D-02
     7  6.0000000000000D-02  8.2643448392966D-02  4.1763332185734D-02
     8  7.0000000000000D-02  9.6599900490442D-02  4.7975342712503D-02
     9  8.0000000000000D-02  1.1063927135079D-01  5.3847163869088D-02
    10  9.0000000000000D-02  1.2477245971866D-01  5.9333952481746D-02
    11  1.0000000000000D-01  1.3900999015585D-01  6.4392343966269D-02
    12  1.1000000000000D-01  1.5336196908927D-01  6.8980622541668D-02
    13  1.2000000000000D-01  1.6783804184394D-01  7.3058886368256D-02
    14  1.3000000000000D-01  1.8244735076421D-01  7.6589207091063D-02
    15  1.4000000000000D-01  1.9719849452504D-01  7.9535783283365D-02
    16  1.5000000000000D-01  2.1209948873267D-01  8.1865087300655D-02
    17  1.6000000000000D-01  2.2715772791219D-01  8.3546005071958D-02
    18  1.7000000000000D-01  2.4237994897650D-01  8.4549968373467D-02
    19  1.8000000000000D-01  2.5777219626928D-01  8.4851079148681D-02
    20  1.9000000000000D-01  2.7333978827102D-01  8.4426225459838D-02
    21  2.0000000000000D-01  2.8908728605472D-01  8.3255188677152D-02
    22  2.1000000000000D-01  3.0501846357442D-01  8.1320741535260D-02
    23  2.2000000000000D-01  3.2113627986652D-01  7.8608736710484D-02
    24  2.3000000000000D-01  3.3744285324004D-01  7.5108185597661D-02
    25  2.4000000000000D-01  3.5393943752876D-01  7.0811326991628D-02
    26  2.5000000000000D-01  3.7062640047372D-01  6.5713685405707D-02
    27  2.6000000000000D-01  3.8750320430098D-01  5.9814118788003D-02
    28  2.7000000000000D-01  4.0456838855503D-01  5.3114855425289D-02
    29  2.8000000000000D-01  4.2181955524398D-01  4.5621519854783D-02
    30  2.9000000000000D-01  4.3925335634812D-01  3.7343147634551D-02
    31  3.0000000000000D-01  4.5686548373873D-01  2.8292188855369D-02
    32  3.1000000000000D-01  4.7465066154912D-01  1.8484500309000D-02
    33  3.2000000000000D-01  4.9260264103497D-01  7.9393262608511D-03
    34  3.3000000000000D-01  5.1071419795591D-01 -3.3207321914156D-03
    35  3.4000000000000D-01  5.2897713250498D-01 -1.5269759157998D-02
    36  3.5000000000000D-01  5.4738227180718D-01 -2.7878577345928D-02
    37  3.6000000000000D-01  5.6591947500302D-01 -4.1114812712587D-02
    38  3.7000000000000D-01  5.8457764092717D-01 -5.4942970264612D-02
    39  3.8000000000000D-01  6.0334471838669D-01 -6.9324520848104D-02
    40  3.9000000000000D-01  6.2220771903746D-01 -8.4217998741141D-02
    41  4.0000000000000D-01  6.4115273285181D-01 -9.9579109825005D-02
    42  4.1000000000000D-01  6.6016494616400D-01 -1.1536085007559D-01
    43  4.2000000000000D-01  6.7922866227451D-01 -1.3151363408260D-01
    44  4.3000000000000D-01  6.9832732458804D-01 -1.4798543326990D-01
    45  4.4000000000000D-01  7.1744354225378D-01 -1.6472192345747D-01
    46  4.5000000000000D-01  7.3655911827080D-01 -1.8166664137222D-01
    47  4.6000000000000D-01  7.5565508001491D-01 -1.9876114968363D-01
    48  4.7000000000000D-01  7.7471171213759D-01 -2.1594521010860D-01
    49  4.8000000000000D-01  7.9370859178116D-01 -2.3315696410014D-01
    50  4.9000000000000D-01  8.1262462604866D-01 -2.5033312060542D-01
    51  5.0000000000000D-01  8.3143809166066D-01 -2.6740915035114D-01
    52  5.1000000000000D-01  8.5012667672527D-01 -2.8431948608753D-01
    53  5.2000000000000D-01  8.6866752454206D-01 -3.0099772819751D-01
    54  5.3000000000000D-01  8.8703727935449D-01 -3.1737685505416D-01
    55  5.4000000000000D-01  9.0521213395997D-01 -3.3338943748754D-01
    56  5.5000000000000D-01  9.2316787908113D-01 -3.4896785670252D-01
    57  5.6000000000000D-01  9.4087995439666D-01 -3.6404452497054D-01
    58  5.7000000000000D-01  9.5832350112436D-01 -3.7855210840229D-01
    59  5.8000000000000D-01  9.7547341604477D-01 -3.9242375109446D-01
    60  5.9000000000000D-01  9.9230440684824D-01 -4.0559329993125D-01
    61  6.0000000000000D-01  1.0087910486839D+00 -4.1799552931180D-01
    62  6.1000000000000D-01  1.0249078417849D+00 -4.2956636506733D-01
    63  6.2000000000000D-01  1.0406292700394D+00 -4.4024310682659D-01
    64  6.3000000000000D-01  1.0559298603737D+00 -4.4996464808538D-01
    65  6.4000000000000D-01  1.0707842428100D+00 -4.5867169323599D-01
    66  6.5000000000000D-01  1.0851672110568D+00 -4.6630697081454D-01
    67  6.6000000000000D-01  1.0990537834900D+00 -4.7281544222899D-01
    68  6.7000000000000D-01  1.1124192643755D+00 -4.7814450523837D-01
    69  6.8000000000000D-01  1.1252393051865D+00 -4.8224419146339D-01
    70  6.9000000000000D-01  1.1374899658623D+00 -4.8506735722154D-01
    71  7.0000000000000D-01  1.1491477758581D+00 -4.8656986699512D-01
    72  7.1000000000000D-01  1.1601897948287D+00 -4.8671076885813D-01
    73  7.2000000000000D-01  1.1705936727942D+00 -4.8545246120867D-01
    74  7.3000000000000D-01  1.1803377096298D+00 -4.8276085017639D-01
    75  7.4000000000000D-01  1.1894009137242D+00 -4.7860549710010D-01
    76  7.5000000000000D-01  1.1977630596525D+00 -4.7295975549802D-01
    77  7.6000000000000D-01  1.2054047447064D+00 -4.6580089698424D-01
    78  7.7000000000000D-01  1.2123074441301D+00 -4.5711022561669D-01
    79  7.8000000000000D-01  1.2184535649081D+00 -4.4687318019725D-01
    80  7.9000000000000D-01  1.2238264979543D+00 -4.3507942408118D-01
    81  8.0000000000000D-01  1.2284106685560D+00 -4.2172292209210D-01
    82  8.1000000000000D-01  1.2321915849252D+00 -4.0680200417924D-01
    83  8.2000000000000D-01  1.2351558847166D+00 -3.9031941549678D-01
    84  8.3000000000000D-01  1.2372913793731D+00 -3.7228235262826D-01
    85  8.4000000000000D-01  1.2385870961648D+00 -3.5270248572573D-01
    86  8.5000000000000D-01  1.2390333177899D+00 -3.3159596637941D-01
    87  8.6000000000000D-01  1.2386216194144D+00 -3.0898342108218D-01
    88  8.7000000000000D-01  1.2373449030293D+00 -2.8488993020202D-01
    89  8.8000000000000D-01  1.2351974290102D+00 -2.5934499242571D-01
    90  8.9000000000000D-01  1.2321748447737D+00 -2.3238247468732D-01
    91  9.0000000000000D-01  1.2282742104247D+00 -2.0404054764625D-01
    92  9.1000000000000D-01  1.2234940213036D+00 -1.7436160683059D-01
    93  9.2000000000000D-01  1.2178342273419D+00 -1.4339217961310D-01
    94  9.3000000000000D-01  1.2112962491478D+00 -1.1118281823806D-01
    95  9.4000000000000D-01  1.2038829907475D+00 -7.7787979168186D-02
    96  9.5000000000000D-01  1.1955988489183D+00 -4.3265889071027D-02
    97  9.6000000000000D-01  1.1864497190564D+00 -7.6783978139219D-03
    98  9.7000000000000D-01  1.1764429975318D+00  2.8909181115178D-02
    99  9.8000000000000D-01  1.1655875804900D+00  6.6428242295721D-02
   100  9.9000000000000D-01  1.1538938590729D+00  1.0480707166035D-01
   101  1.0000000000000D+00  1.1413737110348D+00  1.4397104082271D-01
   102  1.0100000000000D+00  1.1280404887440D+00  1.8384281184877D-01
   103  1.0200000000000D+00  1.1139090035680D+00  2.2434255183211D-01
   104  1.0300000000000D+00  1.0989955066483D+00  2.6538815659398D-01
   105  1.0400000000000D+00  1.0833176660838D+00  3.0689548279488D-01
   106  1.0500000000000D+00  1.0668945405491D+00  3.4877858770662D-01
   107  1.0600000000000D+00  1.0497465493843D+00  3.9094997586475D-01
   108  1.0700000000000D+00  1.0318954392040D+00  4.3332085179189D-01
   109  1.0800000000000D+00  1.0133642470809D+00  4.7580137795507D-01
   110  1.0900000000000D+00  9.9417726037150D-01  5.1830093710005D-01
   111  1.1000000000000D+00  9.7435997325817D-01  5.6072839808231D-01
   112  1.1100000000000D+00  9.5393904009482D-01  6.0299238429966D-01
   113  1.1200000000000D+00  9.3294222565013D-01  6.4500154381725D-01
   114  1.1300000000000D+00  9.1139835235277D-01  6.8666482026642D-01
   115  1.1400000000000D+00  8.8933724465146D-01  7.2789172359104D-01
   116  1.1500000000000D+00  8.6678967061241D-01  7.6859259971206D-01
   117  1.1600000000000D+00  8.4378728088492D-01  8.0867889818188D-01
   118  1.1700000000000D+00  8.2036254517356D-01  8.4806343690403D-01
   119  1.1800000000000D+00  7.9654868636394D-01  8.8666066299870D-01
   120  1.1900000000000D+00  7.7237961245694D-01  9.2438690890794D-01
   121  1.2000000000000D+00  7.4788984647410D-01  9.6116064285103D-01
   122  1.2100000000000D+00  7.2311445450095D-01  9.9690271274879D-01
   123  1.2200000000000D+00  6.9808897204557D-01  1.0315365827666D+00
   124  1.2300000000000D+00  6.7284932889357D-01  1.0649885616491D+00
   125  1.2400000000000D+00  6.4743177264584D-01  1.0971880220412D+00
   126  1.2500000000000D+00  6.2187279113166D-01  1.1280676100198D+00
   127  1.2600000000000D+00  5.9620903389495D-01  1.1575634441105D+00
   128  1.2700000000000D+00  5.7047723295395D-01  1.1856153030808D+00
   129  1.2800000000000D+00  5.4471412303912D-01  1.2121668018404D+00
   130  1.2900000000000D+00  5.1895636151823D-01  1.2371655548462D+00
   131  1.3000000000000D+00  4.9324044821809D-01  1.2605633264272D+00
   132  1.3100000000000D+00  4.6760264535586D-01  1.2823161674849D+00
   133  1.3200000000000D+00  4.4207889779435D-01  1.3023845381226D+00
   134  1.3300000000000D+00  4.1670475383524D-01  1.3207334157427D+00
   135  1.3400000000000D+00  3.9151528676658D-01  1.3373323882311D+00
   136  1.3500000000000D+00  3.6654501737778D-01  1.3521557319472D+00
   137  1.3600000000000D+00  3.4182783765756D-01  1.3651824741810D+00
   138  1.3700000000000D+00  3.1739693588682D-01  1.3763964399079D+00
   139  1.3800000000000D+00  2.9328472333452D-01  1.3857862826928D+00
   140  1.3900000000000D+00  2.6952276276921D-01  1.3933454995670D+00
   141  1.4000000000000D+00  2.4614169898418D-01  1.3990724299315D+00
   142  1.4100000000000D+00  2.2317119154117D-01  1.4029702384164D+00
   143  1.4200000000000D+00  2.0063984992922D-01  1.4050468817832D+00
   144  1.4300000000000D+00  1.7857517132154D-01  1.4053150600518D+00
   145  1.4400000000000D+00  1.5700348113081D-01  1.4037921519026D+00
   146  1.4500000000000D+00  1.3594987652447D-01  1.4005001347385D+00
   147  1.4600000000000D+00  1.1543817308715D-01  1.3954654895649D+00
   148  1.4700000000000D+00  9.5490854789915D-02  1.3887190910889D+00
   149  1.4800000000000D+00  7.6129027417767D-02  1.3802960834410D+00
   150  1.4900000000000D+00  5.7372375625833D-02  1.3702357418585D+00
   151  1.5000000000000D+00  3.9239123731328D-02  1.3585813209730D+00
   152  1.5100000000000D+00  2.1746000416738D-02  1.3453798900312D+00
   153  1.5200000000000D+00  4.9082074237338D-03  1.3306821558086D+00
   154  1.5300000000000D+00 -1.1260607614452D-02  1.3145422736700D+00
   155  1.5400000000000D+00 -2.6748374119168D-02  1.2970176475150D+00
   156  1.5500000000000D+00 -4.1544617195612D-02  1.2781687192467D+00
   157  1.5600000000000D+00 -5.5640471847175D-02  1.2580587484569D+00
   158  1.5700000000000D+00 -6.9028692740079D-02  1.2367535831169D+00
   159  1.5800000000000D+00 -8.1703659401784D-02  1.2143214219458D+00
   160  1.5900000000000D+00 -9.3661376882173D-02  1.1908325693406D+00
   161  1.6000000000000D+00 -1.0489947174534D-01  1.1663591835527D+00
   162  1.6100000000000D+00 -1.1541718347546D-01  1.1409750190259D+00
   163  1.6200000000000D+00 -1.2521535116890D-01  1.1147551636315D+00
   164  1.6300000000000D+00 -1.3429639562583D-01  1.0877757716874D+00
   165  1.6400000000000D+00 -1.4266429674218D-01  1.0601137935634D+00
   166  1.6500000000000D+00 -1.5032456632787D-01  1.0318467027071D+00
   167  1.6600000000000D+00 -1.5728421628884D-01  1.0030522209414D+00
   168  1.6700000000000D+00 -1.6355172231096D-01  9.7380804281186D-01
   169  1.6800000000000D+00 -1.6913698301610D-01  9.4419155986110D-01
   170  1.6900000000000D+00 -1.7405127474554D-01  9.1427958554419D-01
   171  1.7000000000000D+00 -1.7830720196697D-01  8.8414808167559D-01
   172  1.7100000000000D+00 -1.8191864348370D-01  8.5387188703778D-01
   173  1.7200000000000D+00 -1.8490069445978D-01  8.2352444905970D-01
   174  1.7300000000000D+00 -1.8726960447050D-01  7.9317755907315D-01
   175  1.7400000000000D+00 -1.8904271159980D-01  7.6290109209798D-01
   176  1.7500000000000D+00 -1.9023837283217D-01  7.3276275148664D-01
   177  1.7600000000000D+00 -1.9087589075905D-01  7.0282781946628D-01
   178  1.7700000000000D+00 -1.9097543689153D-01  6.7315891365844D-01
   179  1.7800000000000D+00 -1.9055797158987D-01  6.4381575076583D-01
   180  1.7900000000000D+00 -1.8964516094826D-01  6.1485491717446D-01
   181  1.8000000000000D+00 -1.8825929006446D-01  5.8632964378676D-01
   182  1.8100000000000D+00 -1.8642317683848D-01  5.5828961135183D-01
   183  1.8200000000000D+00 -1.8416007189655D-01  5.3078068836154D-01
   184  1.8300000000000D+00 -1.8149358564141D-01  5.0384487003533D-01
   185  1.8400000000000D+00 -1.7844757707255D-01  4.7752000593647D-01
   186  1.8500000000000D+00 -1.7504602193216D-01  4.5183936631557D-01
   187  1.8600000000000D+00 -1.7131296237376D-01  4.2683182534474D-01
   188  1.8700000000000D+00 -1.6727248797511D-01  4.0252231662864D-01
   189  1.8800000000000D+00 -1.6294871190414D-01  3.7893218503799D-01
   190  1.8900000000000D+00 -1.5836578248805D-01  3.5607965870519D-01
   191  1.9000000000000D+00 -1.5354791184082D-01  3.3398048441915D-01
   192  1.9100000000000D+00 -1.4851928498767D-01  3.1264768109495D-01
   193  1.9200000000000D+00 -1.4330399943996D-01  2.9209146445270D-01
   194  1.9300000000000D+00 -1.3792603218065D-01  2.7231944890764D-01
   195  1.9400000000000D+00 -1.3240918715039D-01  2.5333668019903D-01
   196  1.9500000000000D+00 -1.2677704800380D-01  2.3514571474476D-01
   197  1.9600000000000D+00 -1.2105293263503D-01  2.1774671578557D-01
   198  1.9700000000000D+00 -1.1525984745036D-01  2.0113754859657D-01
   199  1.9800000000000D+00 -1.0942044296703D-01  1.8531388590034D-01
   200  1.9900000000000D+00 -1.0355697031366D-01  1.7026931953167D-01
   201  2.0000000000000D+00 -9.7691238916802D-02  1.5599547867588D-01
   202  2.0100000000000D+00 -9.1844575200163D-02  1.4248215308166D-01
   203  2.0200000000000D+00 -8.6037782484421D-02  1.2971742096994D-01
   204  2.0300000000000D+00 -8.0291102069780D-02  1.1768778074340D-01
   205  2.0400000000000D+00 -7.4624175503513D-02  1.0637828566666D-01
   206  2.0500000000000D+00 -6.9056008152780D-02  9.5772680754772D-02
   207  2.0600000000000D+00 -6.3604933994827D-02  8.5853541265933D-02
   208  2.0700000000000D+00 -5.8288581752110D-02  7.6602411643551D-02
   209  2.0800000000000D+00 -5.3123842330833D-02  6.7999944562562D-02
   210  2.0900000000000D+00 -4.8126837601500D-02  6.0026039163134D-02
   211  2.1000000000000D+00 -4.3312890562288D-02  5.2659977380923D-02
   212  2.1100000000000D+00 -3.8696496865133D-02  4.5880558657286D-02
   213  2.1200000000000D+00 -3.4291297762984D-02  3.9666230897884D-02
   214  2.1300000000000D+00 -3.0110054469122D-02  3.3995218340635D-02
   215  2.1400000000000D+00 -2.6164623955654D-02  2.8845645135779D-02
   216  2.1500000000000D+00 -2.2465936214459D-02  2.4195653420524D-02
   217  2.1600000000000D+00 -1.9023972982196D-02  2.0023517045855D-02
   218  2.1700000000000D+00 -1.5847747965931D-02  1.6307748130147D-02
   219  2.1800000000000D+00 -1.2945288570670D-02  1.3027197721605D-02
   220  2.1900000000000D+00 -1.0323619147333D-02  1.0161149814287D-02
   221  2.2000000000000D+00 -7.9901995627858D-03  7.6904719856348D-03
   222  2.2100000000000D+00 -5.9477184043897D-03  5.5938894089583D-03
   223  2.2200000000000D+00 -4.1978104578104D-03  3.8508041099510D-03
   224  2.2300000000000D+00 -2.7376946766313D-03  2.4392442945169D-03
   225  2.2400000000000D+00 -1.5905388749649D-03  1.3565582007836D-03
   226  2.2500000000000D+00 -7.6690218516289D-04  5.9216243934159D-04
   227  2.2600000000000D+00 -2.5134146799347D-04  1.2026760714783D-04
   228  2.2700000000000D+00  1.3183220818362D-05 -1.0965474561471D-04
   229  2.2800000000000D+00  9.2197089818787D-05 -1.5294041946924D-04
   230  2.2900000000000D+00  6.4150233085606D-05 -9.0630058290999D-05
   231  2.3000000000000D+00  3.0874894304286D-06 -4.1181264930753D-06
   232  2.3100000000000D+00 -2.1720785095359D-05  2.8581504366384D-05
   233  2.3200000000000D+00 -1.6472822048499D-05  2.1202675075970D-05
   234  2.3300000000000D+00  1.0963491397075D-06 -1.5540662794681D-06
   235  2.3400000000000D+00  4.3837086469303D-06 -6.1294252139851D-06
   236  2.3500000000000D+00  2.6236554415704D-06 -3.6299623677651D-06
   237  2.3600000000000D+00 -7.6220590344091D-08  1.9299947960830D-07
   238  2.3700000000000D+00 -1.5897468991562D-07  4.0254257131957D-07
   239  2.3800000000000D+00 -7.0015376950940D-08  1.7728715108487D-07
   240  2.3900000000000D+00  0.0000000000000D+00  0.0000000000000D+00
   241  2.4000000000000D+00  0.0000000000000D+00  0.0000000000000D+00
   242  2.4100000000000D+00  0.0000000000000D+00  0.0000000000000D+00
   243  2.4200000000000D+00  0.0000000000000D+00  0.0000000000000D+00
   244  2.4300000000000D+00  0.0000000000000D+00  0.0000000000000D+00
   245  2.4400000000000D+00  0.0000000000000D+00  0.0000000000000D+00
   246  2.4500000000000D+00  0.0000000000000D+00  0.0000000000000D+00
   247  2.4600000000000D+00  0.0000000000000D+00  0.0000000000000D+00
   248  2.4700000000000D+00  0.0000000000000D+00  0.0000000000000D+00
   249  2.4800000000000D+00  0.0000000000000D+00  0.0000000000000D+00
   250  2.4900000000000D+00  0.0000000000000D+00  0.0000000000000D+00
   251  2.5000000000000D+00  0.0000000000000D+00  0.0000000000000D+00
   252  2.5100000000000D+00  0.0000000000000D+00  0.0000000000000D+00
   253  2.5200000000000D+00  0.0000000000000D+00  0.0000000000000D+00
   254  2.5300000000000D+00  0.0000000000000D+00  0.0000000000000D+00
   255  2.5400000000000D+00  0.0000000000000D+00  0.0000000000000D+00
   256  2.5500000000000D+00  0.0000000000000D+00  0.0000000000000D+00
   257  2.5600000000000D+00  0.0000000000000D+00  0.0000000000000D+00
   258  2.5700000000000D+00  0.0000000000000D+00  0.0000000000000D+00
   259  2.5800000000000D+00  0.0000000000000D+00  0.0000000000000D+00
   260  2.5900000000000D+00  0.0000000000000D+00  0.0000000000000D+00
   261  2.6000000000000D+00  0.0000000000000D+00  0.0000000000000D+00
   262  2.6100000000000D+00  0.0000000000000D+00  0.0000000000000D+00
   263  2.6200000000000D+00  0.0000000000000D+00  0.0000000000000D+00
   264  2.6300000000000D+00  0.0000000000000D+00  0.0000000000000D+00
   265  2.6400000000000D+00  0.0000000000000D+00  0.0000000000000D+00
   266  2.6500000000000D+00  0.0000000000000D+00  0.0000000000000D+00
   267  2.6600000000000D+00  0.0000000000000D+00  0.0000000000000D+00
   268  2.6700000000000D+00  0.0000000000000D+00  0.0000000000000D+00
   269  2.6800000000000D+00  0.0000000000000D+00  0.0000000000000D+00
   270  2.6900000000000D+00  0.0000000000000D+00  0.0000000000000D+00
   271  2.7000000000000D+00  0.0000000000000D+00  0.0000000000000D+00
   272  2.7100000000000D+00  0.0000000000000D+00  0.0000000000000D+00
   273  2.7200000000000D+00  0.0000000000000D+00  0.0000000000000D+00
   274  2.7300000000000D+00  0.0000000000000D+00  0.0000000000000D+00
   275  2.7400000000000D+00  0.0000000000000D+00  0.0000000000000D+00
   276  2.7500000000000D+00  0.0000000000000D+00  0.0000000000000D+00
   277  2.7600000000000D+00  0.0000000000000D+00  0.0000000000000D+00
   278  2.7700000000000D+00  0.0000000000000D+00  0.0000000000000D+00
   279  2.7800000000000D+00  0.0000000000000D+00  0.0000000000000D+00
   280  2.7900000000000D+00  0.0000000000000D+00  0.0000000000000D+00
   281  2.8000000000000D+00  0.0000000000000D+00  0.0000000000000D+00
   282  2.8100000000000D+00  0.0000000000000D+00  0.0000000000000D+00
   283  2.8200000000000D+00  0.0000000000000D+00  0.0000000000000D+00
   284  2.8300000000000D+00  0.0000000000000D+00  0.0000000000000D+00
   285  2.8400000000000D+00  0.0000000000000D+00  0.0000000000000D+00
   286  2.8500000000000D+00  0.0000000000000D+00  0.0000000000000D+00
   287  2.8600000000000D+00  0.0000000000000D+00  0.0000000000000D+00
   288  2.8700000000000D+00  0.0000000000000D+00  0.0000000000000D+00
   289  2.8800000000000D+00  0.0000000000000D+00  0.0000000000000D+00
   290  2.8900000000000D+00  0.0000000000000D+00  0.0000000000000D+00
   291  2.9000000000000D+00  0.0000000000000D+00  0.0000000000000D+00
   292  2.9100000000000D+00  0.0000000000000D+00  0.0000000000000D+00
   293  2.9200000000000D+00  0.0000000000000D+00  0.0000000000000D+00
   294  2.9300000000000D+00  0.0000000000000D+00  0.0000000000000D+00
   295  2.9400000000000D+00  0.0000000000000D+00  0.0000000000000D+00
   296  2.9500000000000D+00  0.0000000000000D+00  0.0000000000000D+00
   297  2.9600000000000D+00  0.0000000000000D+00  0.0000000000000D+00
   298  2.9700000000000D+00  0.0000000000000D+00  0.0000000000000D+00
   299  2.9800000000000D+00  0.0000000000000D+00  0.0000000000000D+00
   300  2.9900000000000D+00  0.0000000000000D+00  0.0000000000000D+00
   301  3.0000000000000D+00  0.0000000000000D+00  0.0000000000000D+00
   302  3.0100000000000D+00  0.0000000000000D+00  0.0000000000000D+00
   303  3.0200000000000D+00  0.0000000000000D+00  0.0000000000000D+00
   304  3.0300000000000D+00  0.0000000000000D+00  0.0000000000000D+00
   305  3.0400000000000D+00  0.0000000000000D+00  0.0000000000000D+00
   306  3.0500000000000D+00  0.0000000000000D+00  0.0000000000000D+00
   307  3.0600000000000D+00  0.0000000000000D+00  0.0000000000000D+00
   308  3.0700000000000D+00  0.0000000000000D+00  0.0000000000000D+00
   309  3.0800000000000D+00  0.0000000000000D+00  0.0000000000000D+00
   310  3.0900000000000D+00  0.0000000000000D+00  0.0000000000000D+00
   311  3.1000000000000D+00  0.0000000000000D+00  0.0000000000000D+00
   312  3.1100000000000D+00  0.0000000000000D+00  0.0000000000000D+00
   313  3.1200000000000D+00  0.0000000000000D+00  0.0000000000000D+00
   314  3.1300000000000D+00  0.0000000000000D+00  0.0000000000000D+00
   315  3.1400000000000D+00  0.0000000000000D+00  0.0000000000000D+00
   316  3.1500000000000D+00  0.0000000000000D+00  0.0000000000000D+00
   317  3.1600000000000D+00  0.0000000000000D+00  0.0000000000000D+00
   318  3.1700000000000D+00  0.0000000000000D+00  0.0000000000000D+00
   319  3.1800000000000D+00  0.0000000000000D+00  0.0000000000000D+00
   320  3.1900000000000D+00  0.0000000000000D+00  0.0000000000000D+00
   321  3.2000000000000D+00  0.0000000000000D+00  0.0000000000000D+00
   322  3.2100000000000D+00  0.0000000000000D+00  0.0000000000000D+00
   323  3.2200000000000D+00  0.0000000000000D+00  0.0000000000000D+00
   324  3.2300000000000D+00  0.0000000000000D+00  0.0000000000000D+00
   325  3.2400000000000D+00  0.0000000000000D+00  0.0000000000000D+00
   326  3.2500000000000D+00  0.0000000000000D+00  0.0000000000000D+00
   327  3.2600000000000D+00  0.0000000000000D+00  0.0000000000000D+00
   328  3.2700000000000D+00  0.0000000000000D+00  0.0000000000000D+00
   329  3.2800000000000D+00  0.0000000000000D+00  0.0000000000000D+00
   330  3.2900000000000D+00  0.0000000000000D+00  0.0000000000000D+00
   331  3.3000000000000D+00  0.0000000000000D+00  0.0000000000000D+00
   332  3.3100000000000D+00  0.0000000000000D+00  0.0000000000000D+00
   333  3.3200000000000D+00  0.0000000000000D+00  0.0000000000000D+00
   334  3.3300000000000D+00  0.0000000000000D+00  0.0000000000000D+00
   335  3.3400000000000D+00  0.0000000000000D+00  0.0000000000000D+00
   336  3.3500000000000D+00  0.0000000000000D+00  0.0000000000000D+00
   337  3.3600000000000D+00  0.0000000000000D+00  0.0000000000000D+00
   338  3.3700000000000D+00  0.0000000000000D+00  0.0000000000000D+00
   339  3.3800000000000D+00  0.0000000000000D+00  0.0000000000000D+00
   340  3.3900000000000D+00  0.0000000000000D+00  0.0000000000000D+00
   341  3.4000000000000D+00  0.0000000000000D+00  0.0000000000000D+00
   342  3.4100000000000D+00  0.0000000000000D+00  0.0000000000000D+00
   343  3.4200000000000D+00  0.0000000000000D+00  0.0000000000000D+00
   344  3.4300000000000D+00  0.0000000000000D+00  0.0000000000000D+00
   345  3.4400000000000D+00  0.0000000000000D+00  0.0000000000000D+00
   346  3.4500000000000D+00  0.0000000000000D+00  0.0000000000000D+00
   347  3.4600000000000D+00  0.0000000000000D+00  0.0000000000000D+00
   348  3.4700000000000D+00  0.0000000000000D+00  0.0000000000000D+00
   349  3.4800000000000D+00  0.0000000000000D+00  0.0000000000000D+00
   350  3.4900000000000D+00  0.0000000000000D+00  0.0000000000000D+00
   351  3.5000000000000D+00  0.0000000000000D+00  0.0000000000000D+00
   352  3.5100000000000D+00  0.0000000000000D+00  0.0000000000000D+00
   353  3.5200000000000D+00  0.0000000000000D+00  0.0000000000000D+00
   354  3.5300000000000D+00  0.0000000000000D+00  0.0000000000000D+00
   355  3.5400000000000D+00  0.0000000000000D+00  0.0000000000000D+00
   356  3.5500000000000D+00  0.0000000000000D+00  0.0000000000000D+00
   357  3.5600000000000D+00  0.0000000000000D+00  0.0000000000000D+00
   358  3.5700000000000D+00  0.0000000000000D+00  0.0000000000000D+00
   359  3.5800000000000D+00  0.0000000000000D+00  0.0000000000000D+00
   360  3.5900000000000D+00  0.0000000000000D+00  0.0000000000000D+00
   361  3.6000000000000D+00  0.0000000000000D+00  0.0000000000000D+00
   362  3.6100000000000D+00  0.0000000000000D+00  0.0000000000000D+00
   363  3.6200000000000D+00  0.0000000000000D+00  0.0000000000000D+00
   364  3.6300000000000D+00  0.0000000000000D+00  0.0000000000000D+00
   365  3.6400000000000D+00  0.0000000000000D+00  0.0000000000000D+00
   366  3.6500000000000D+00  0.0000000000000D+00  0.0000000000000D+00
   367  3.6600000000000D+00  0.0000000000000D+00  0.0000000000000D+00
   368  3.6700000000000D+00  0.0000000000000D+00  0.0000000000000D+00
   369  3.6800000000000D+00  0.0000000000000D+00  0.0000000000000D+00
   370  3.6900000000000D+00  0.0000000000000D+00  0.0000000000000D+00
   371  3.7000000000000D+00  0.0000000000000D+00  0.0000000000000D+00
   372  3.7100000000000D+00  0.0000000000000D+00  0.0000000000000D+00
   373  3.7200000000000D+00  0.0000000000000D+00  0.0000000000000D+00
   374  3.7300000000000D+00  0.0000000000000D+00  0.0000000000000D+00
   375  3.7400000000000D+00  0.0000000000000D+00  0.0000000000000D+00
   376  3.7500000000000D+00  0.0000000000000D+00  0.0000000000000D+00
   377  3.7600000000000D+00  0.0000000000000D+00  0.0000000000000D+00
   378  3.7700000000000D+00  0.0000000000000D+00  0.0000000000000D+00
   379  3.7800000000000D+00  0.0000000000000D+00  0.0000000000000D+00
   380  3.7900000000000D+00  0.0000000000000D+00  0.0000000000000D+00
   381  3.8000000000000D+00  0.0000000000000D+00  0.0000000000000D+00
   382  3.8100000000000D+00  0.0000000000000D+00  0.0000000000000D+00
   383  3.8200000000000D+00  0.0000000000000D+00  0.0000000000000D+00
   384  3.8300000000000D+00  0.0000000000000D+00  0.0000000000000D+00
   385  3.8400000000000D+00  0.0000000000000D+00  0.0000000000000D+00
   386  3.8500000000000D+00  0.0000000000000D+00  0.0000000000000D+00
   387  3.8600000000000D+00  0.0000000000000D+00  0.0000000000000D+00
   388  3.8700000000000D+00  0.0000000000000D+00  0.0000000000000D+00
   389  3.8800000000000D+00  0.0000000000000D+00  0.0000000000000D+00
   390  3.8900000000000D+00  0.0000000000000D+00  0.0000000000000D+00
   391  3.9000000000000D+00  0.0000000000000D+00  0.0000000000000D+00
   392  3.9100000000000D+00  0.0000000000000D+00  0.0000000000000D+00
   393  3.9200000000000D+00  0.0000000000000D+00  0.0000000000000D+00
   394  3.9300000000000D+00  0.0000000000000D+00  0.0000000000000D+00
   395  3.9400000000000D+00  0.0000000000000D+00  0.0000000000000D+00
   396  3.9500000000000D+00  0.0000000000000D+00  0.0000000000000D+00
   397  3.9600000000000D+00  0.0000000000000D+00  0.0000000000000D+00
   398  3.9700000000000D+00  0.0000000000000D+00  0.0000000000000D+00
   399  3.9800000000000D+00  0.0000000000000D+00  0.0000000000000D+00
   400  3.9900000000000D+00  0.0000000000000D+00  0.0000000000000D+00
   401  4.0000000000000D+00  0.0000000000000D+00  0.0000000000000D+00
   402  4.0100000000000D+00  0.0000000000000D+00  0.0000000000000D+00
   403  4.0200000000000D+00  0.0000000000000D+00  0.0000000000000D+00
   404  4.0300000000000D+00  0.0000000000000D+00  0.0000000000000D+00
   405  4.0400000000000D+00  0.0000000000000D+00  0.0000000000000D+00
   406  4.0500000000000D+00  0.0000000000000D+00  0.0000000000000D+00
   407  4.0600000000000D+00  0.0000000000000D+00  0.0000000000000D+00
   408  4.0700000000000D+00  0.0000000000000D+00  0.0000000000000D+00
   409  4.0800000000000D+00  0.0000000000000D+00  0.0000000000000D+00
   410  4.0900000000000D+00  0.0000000000000D+00  0.0000000000000D+00
   411  4.1000000000000D+00  0.0000000000000D+00  0.0000000000000D+00
   412  4.1100000000000D+00  0.0000000000000D+00  0.0000000000000D+00
   413  4.1200000000000D+00  0.0000000000000D+00  0.0000000000000D+00
   414  4.1300000000000D+00  0.0000000000000D+00  0.0000000000000D+00
   415  4.1400000000000D+00  0.0000000000000D+00  0.0000000000000D+00
   416  4.1500000000000D+00  0.0000000000000D+00  0.0000000000000D+00
   417  4.1600000000000D+00  0.0000000000000D+00  0.0000000000000D+00
   418  4.1700000000000D+00  0.0000000000000D+00  0.0000000000000D+00
   419  4.1800000000000D+00  0.0000000000000D+00  0.0000000000000D+00
   420  4.1900000000000D+00  0.0000000000000D+00  0.0000000000000D+00
   421  4.2000000000000D+00  0.0000000000000D+00  0.0000000000000D+00
   422  4.2100000000000D+00  0.0000000000000D+00  0.0000000000000D+00