Sn    ONCVPSP-3.3.0  r_core=   1.31325   1.31325   1.51535
     50.0000     22.0000      220117    zatom,zion,pspd
     8      11   2     4   600     0    pspcod,pspxc,lmax,lloc,mmax,r2well
  5.99000000  0.00000000  0.00000000    rchrg fchrg qchrg
     2     2     2     0     0    nproj
     1     1           extension_switch
   0                         9.7017917892570D+00 -6.7120325071223D-01
     1  0.0000000000000D+00  1.0779654946447D-10 -1.0387915416743D-08
     2  1.0000000000000D-02  8.3590668562316D-02  8.0288620819875D-02
     3  2.0000000000000D-02  1.6697300188380D-01  1.5983208108840D-01
     4  3.0000000000000D-02  2.4993920547842D-01  2.3789472523176D-01
     5  4.0000000000000D-02  3.3228256639245D-01  3.1375975295511D-01
     6  5.0000000000000D-02  4.1379799399895D-01  3.8673826290639D-01
     7  6.0000000000000D-02  4.9428256074799D-01  4.5617784312171D-01
     8  7.0000000000000D-02  5.7353604272835D-01  5.2147056962591D-01
     9  8.0000000000000D-02  6.5136145978896D-01  5.8206028494941D-01
    10  9.0000000000000D-02  7.2756561483716D-01  6.3744904096213D-01
    11  1.0000000000000D-01  8.0195963177902D-01  6.8720260509574D-01
    12  1.1000000000000D-01  8.7435949139694D-01  7.3095494546915D-01
    13  1.2000000000000D-01  9.4458656427491D-01  7.6841162836037D-01
    14  1.3000000000000D-01  1.0124681396855D+00  7.9935208056619D-01
    15  1.4000000000000D-01  1.0778379491481D+00  8.2363068912157D-01
    16  1.5000000000000D-01  1.1405366831611D+00  8.4117673126321D-01
    17  1.6000000000000D-01  1.2004124994004D+00  8.5199314805336D-01
    18  1.7000000000000D-01  1.2573215204770D+00  8.5615419536764D-01
    19  1.8000000000000D-01  1.3111283191463D+00  8.5380202563268D-01
    20  1.9000000000000D-01  1.3617063886844D+00  8.4514227242299D-01
    21  2.0000000000000D-01  1.4089385959771D+00  8.3043872745744D-01
    22  2.1000000000000D-01  1.4527176147217D+00  8.1000721535655D-01
    23  2.2000000000000D-01  1.4929463360233D+00  7.8420878544822D-01
    24  2.3000000000000D-01  1.5295382535679D+00  7.5344235168162D-01
    25  2.4000000000000D-01  1.5624178204939D+00  7.1813692111348D-01
    26  2.5000000000000D-01  1.5915207750499D+00  6.7874355828493D-01
    27  2.6000000000000D-01  1.6167944321308D+00  6.3572723698205D-01
    28  2.7000000000000D-01  1.6381979378222D+00  5.8955873227802D-01
    29  2.8000000000000D-01  1.6557024841619D+00  5.4070670435709D-01
    30  2.9000000000000D-01  1.6692914814414D+00  4.8963012142627D-01
    31  3.0000000000000D-01  1.6789606855240D+00  4.3677116209865D-01
    32  3.1000000000000D-01  1.6847182778472D+00  3.8254872808750D-01
    33  3.2000000000000D-01  1.6865848960065D+00  3.2735268604738D-01
    34  3.3000000000000D-01  1.6845936130786D+00  2.7153894313720D-01
    35  3.4000000000000D-01  1.6787898641399D+00  2.1542544461064D-01
    36  3.5000000000000D-01  1.6692313187637D+00  1.5928916374378D-01
    37  3.6000000000000D-01  1.6559876986314D+00  1.0336413500750D-01
    38  3.7000000000000D-01  1.6391405397734D+00  4.7840560928328D-02
    39  3.8000000000000D-01  1.6187828993526D+00 -7.1349980725998D-03
    40  3.9000000000000D-01  1.5950190073173D+00 -6.1458363038769D-02
    41  4.0000000000000D-01  1.5679638636753D+00 -1.1506543858761D-01
    42  4.1000000000000D-01  1.5377427825748D+00 -1.6792893221851D-01
    43  4.2000000000000D-01  1.5044908848059D+00 -2.2005416529005D-01
    44  4.3000000000000D-01  1.4683525407741D+00 -2.7147406890597D-01
    45  4.4000000000000D-01  1.4294807664102D+00 -3.2224347510343D-01
    46  4.5000000000000D-01  1.3880365748959D+00 -3.7243282894091D-01
    47  4.6000000000000D-01  1.3441882874694D+00 -4.2212146003213D-01
    48  4.7000000000000D-01  1.2981108069451D+00 -4.7139056249991D-01
    49  4.8000000000000D-01  1.2499848579179D+00 -5.2031604000416D-01
    50  4.9000000000000D-01  1.1999961979319D+00 -5.6896137725800D-01
    51  5.0000000000000D-01  1.1483348041649D+00 -6.1737070115478D-01
    52  5.1000000000000D-01  1.0951940404118D+00 -6.6556219321913D-01
    53  5.2000000000000D-01  1.0407698093432D+00 -7.1352201054468D-01
    54  5.3000000000000D-01  9.8525969516107D-01 -7.6119886474419D-01
    55  5.4000000000000D-01  9.2886210187364D-01 -8.0849939779525D-01
    56  5.5000000000000D-01  8.7177539246740D-01 -8.5528448017457D-01
    57  5.6000000000000D-01  8.1419703425591D-01 -9.0136654058580D-01
    58  5.7000000000000D-01  7.5632275564379D-01 -9.4650801804546D-01
    59  5.8000000000000D-01  6.9834571945214D-01 -9.9042100660670D-01
    60  5.9000000000000D-01  6.4045571781240D-01 -1.0327681406330D+00
    61  6.0000000000000D-01  5.8283839345285D-01 -1.0731647450382D+00
    62  6.1000000000000D-01  5.2567449197284D-01 -1.1111822502601D+00
    63  6.2000000000000D-01  4.6913914943320D-01 -1.1463528468641D+00
    64  6.3000000000000D-01  4.1340121928391D-01 -1.1781753295495D+00
    65  6.4000000000000D-01  3.5862264231066D-01 -1.2061220557943D+00
    66  6.5000000000000D-01  3.0495786291190D-01 -1.2296469207318D+00
    67  6.6000000000000D-01  2.5255329462075D-01 -1.2481942274527D+00
    68  6.7000000000000D-01  2.0154683736834D-01 -1.2612083114509D+00
    69  6.8000000000000D-01  1.5206744855211D-01 -1.2681437596223D+00
    70  6.9000000000000D-01  1.0423476952371D-01 -1.2684760484072D+00
    71  7.0000000000000D-01  5.8158808659168D-02 -1.2617124128874D+00
    72  7.1000000000000D-01  1.3939681717946D-02 -1.2474027490014D+00
    73  7.2000000000000D-01 -2.8332590254234D-02 -1.2251503448433D+00
    74  7.3000000000000D-01 -6.8578225670506D-02 -1.1946222344264D+00
    75  7.4000000000000D-01 -1.0672777041895D-01 -1.1555589684564D+00
    76  7.5000000000000D-01 -1.4272213018924D-01 -1.1077836015769D+00
    77  7.6000000000000D-01 -1.7651254854505D-01 -1.0512097042504D+00
    78  7.7000000000000D-01 -2.0806053254796D-01 -9.8584821980103D-01
    79  7.8000000000000D-01 -2.3733772808200D-01 -9.1181300298747D-01
    80  7.9000000000000D-01 -2.6432574734095D-01 -8.2932489572790D-01
    81  8.0000000000000D-01 -2.8901595121935D-01 -7.3871421773147D-01
    82  8.1000000000000D-01 -3.1140918959288D-01 -6.4042157468556D-01
    83  8.2000000000000D-01 -3.3151550268088D-01 -5.3499691378551D-01
    84  8.3000000000000D-01 -3.4935378685442D-01 -4.2309678537175D-01
    85  8.4000000000000D-01 -3.6495142838428D-01 -3.0547979976478D-01
    86  8.5000000000000D-01 -3.7834390871716D-01 -1.8300029954940D-01
    87  8.6000000000000D-01 -3.8957438492391D-01 -5.6600299014990D-02
    88  8.7000000000000D-01 -3.9869324898226D-01  7.2700226342998D-02
    89  8.8000000000000D-01 -4.0575766953955D-01  2.0381458697072D-01
    90  8.9000000000000D-01 -4.1083111975040D-01  3.3560202074453D-01
    91  9.0000000000000D-01 -4.1398289470120D-01  4.6688155937397D-01
    92  9.1000000000000D-01 -4.1528762182143D-01  5.9644692558512D-01
    93  9.2000000000000D-01 -4.1482476754270D-01  7.2308224512802D-01
    94  9.3000000000000D-01 -4.1267814330346D-01  8.4557833914744D-01
    95  9.4000000000000D-01 -4.0893541381356D-01  9.6274934764424D-01
    96  9.5000000000000D-01 -4.0368761029068D-01  1.0734494239505D+00
    97  9.6000000000000D-01 -3.9702865116429D-01  1.1765892336776D+00
    98  9.7000000000000D-01 -3.8905487251789D-01  1.2711519893996D+00
    99  9.8000000000000D-01 -3.7986457030003D-01  1.3562087549024D+00
   100  9.9000000000000D-01 -3.6955755609802D-01  1.4309327598571D+00
   101  1.0000000000000D+00 -3.5823472802408D-01  1.4946124773564D+00
   102  1.0100000000000D+00 -3.4599765802310D-01  1.5466632327245D+00
   103  1.0200000000000D+00 -3.3294819667379D-01  1.5866371320487D+00
   104  1.0300000000000D+00 -3.1918809631833D-01  1.6142311238935D+00
   105  1.0400000000000D+00 -3.0481865314842D-01  1.6292930328116D+00
   106  1.0500000000000D+00 -2.8994036864153D-01  1.6318254370549D+00
   107  1.0600000000000D+00 -2.7465263055747D-01  1.6219872940796D+00
   108  1.0700000000000D+00 -2.5905341351331D-01  1.6000932533267D+00
   109  1.0800000000000D+00 -2.4323899897815D-01  1.5666106344672D+00
   110  1.0900000000000D+00 -2.2730371438919D-01  1.5221540826263D+00
   111  1.1000000000000D+00 -2.1133969093112D-01  1.4674779553365D+00
   112  1.1100000000000D+00 -1.9543663941072D-01  1.4034665307005D+00
   113  1.1200000000000D+00 -1.7968164354785D-01  1.3311221643557D+00
   114  1.1300000000000D+00 -1.6415896991845D-01  1.2515515564958D+00
   115  1.1400000000000D+00 -1.4894989371031D-01  1.1659503225476D+00
   116  1.1500000000000D+00 -1.3413253939061D-01  1.0755860944111D+00
   117  1.1600000000000D+00 -1.1978173534885D-01  9.8178040290676D-01
   118  1.1700000000000D+00 -1.0596888155035D-01  8.8588961390281D-01
   119  1.1800000000000D+00 -9.2761829215962D-02  7.8928521124775D-01
   120  1.1900000000000D+00 -8.0224771544697D-02  6.9333373398186D-01
   121  1.2000000000000D+00 -6.8418144512203D-02  5.9937668096637D-01
   122  1.2100000000000D+00 -5.7398536781481D-02  5.0871070269292D-01
   123  1.2200000000000D+00 -4.7218607804827D-02  4.2256839967678D-01
   124  1.2300000000000D+00 -3.7927013234429D-02  3.4210003544160D-01
   125  1.2400000000000D+00 -2.9568336789731D-02  2.6835646561276D-01
   126  1.2500000000000D+00 -2.2183027783506D-02  2.0227356981845D-01
   127  1.2600000000000D+00 -1.5807343582329D-02  1.4465844155012D-01
   128  1.2700000000000D+00 -1.0474862644413D-02  9.6192340171529D-02
   129  1.2800000000000D+00 -6.2101626561704D-03  5.7361966002710D-02
   130  1.2900000000000D+00 -3.0184364417425D-03  2.8344998826745D-02
   131  1.3000000000000D+00 -9.9698925579316D-04  1.0132726468714D-02
   132  1.3100000000000D+00 -9.6500159851919D-05  2.0941998805792D-03
   133  1.3200000000000D+00  7.8148183988331D-05 -2.1901065363982D-05
   134  1.3300000000000D+00 -5.8950312489122D-06  1.7738659929852D-05
   135  1.3400000000000D+00 -1.7566024407986D-05  6.8997818813495D-05
   136  1.3500000000000D+00  3.7759216875894D-06 -9.2138773330798D-06
   137  1.3600000000000D+00  8.4846938399662D-07 -2.4295106888394D-06
   138  1.3700000000000D+00 -4.6388758514270D-08 -2.7647978378929D-06
   139  1.3800000000000D+00  0.0000000000000D+00  0.0000000000000D+00
   140  1.3900000000000D+00  0.0000000000000D+00  0.0000000000000D+00
   141  1.4000000000000D+00  0.0000000000000D+00  0.0000000000000D+00
   142  1.4100000000000D+00  0.0000000000000D+00  0.0000000000000D+00
   143  1.4200000000000D+00  0.0000000000000D+00  0.0000000000000D+00
   144  1.4300000000000D+00  0.0000000000000D+00  0.0000000000000D+00
   145  1.4400000000000D+00  0.0000000000000D+00  0.0000000000000D+00
   146  1.4500000000000D+00  0.0000000000000D+00  0.0000000000000D+00
   147  1.4600000000000D+00  0.0000000000000D+00  0.0000000000000D+00
   148  1.4700000000000D+00  0.0000000000000D+00  0.0000000000000D+00
   149  1.4800000000000D+00  0.0000000000000D+00  0.0000000000000D+00
   150  1.4900000000000D+00  0.0000000000000D+00  0.0000000000000D+00
   151  1.5000000000000D+00  0.0000000000000D+00  0.0000000000000D+00
   152  1.5100000000000D+00  0.0000000000000D+00  0.0000000000000D+00
   153  1.5200000000000D+00  0.0000000000000D+00  0.0000000000000D+00
   154  1.5300000000000D+00  0.0000000000000D+00  0.0000000000000D+00
   155  1.5400000000000D+00  0.0000000000000D+00  0.0000000000000D+00
   156  1.5500000000000D+00  0.0000000000000D+00  0.0000000000000D+00
   157  1.5600000000000D+00  0.0000000000000D+00  0.0000000000000D+00
   158  1.5700000000000D+00  0.0000000000000D+00  0.0000000000000D+00
   159  1.5800000000000D+00  0.0000000000000D+00  0.0000000000000D+00
   160  1.5900000000000D+00  0.0000000000000D+00  0.0000000000000D+00
   161  1.6000000000000D+00  0.0000000000000D+00  0.0000000000000D+00
   162  1.6100000000000D+00  0.0000000000000D+00  0.0000000000000D+00
   163  1.6200000000000D+00  0.0000000000000D+00  0.0000000000000D+00
   164  1.6300000000000D+00  0.0000000000000D+00  0.0000000000000D+00
   165  1.6400000000000D+00  0.0000000000000D+00  0.0000000000000D+00
   166  1.6500000000000D+00  0.0000000000000D+00  0.0000000000000D+00
   167  1.6600000000000D+00  0.0000000000000D+00  0.0000000000000D+00
   168  1.6700000000000D+00  0.0000000000000D+00  0.0000000000000D+00
   169  1.6800000000000D+00  0.0000000000000D+00  0.0000000000000D+00
   170  1.6900000000000D+00  0.0000000000000D+00  0.0000000000000D+00
   171  1.7000000000000D+00  0.0000000000000D+00  0.0000000000000D+00
   172  1.7100000000000D+00  0.0000000000000D+00  0.0000000000000D+00
   173  1.7200000000000D+00  0.0000000000000D+00  0.0000000000000D+00
   174  1.7300000000000D+00  0.0000000000000D+00  0.0000000000000D+00
   175  1.7400000000000D+00  0.0000000000000D+00  0.0000000000000D+00
   176  1.7500000000000D+00  0.0000000000000D+00  0.0000000000000D+00
   177  1.7600000000000D+00  0.0000000000000D+00  0.0000000000000D+00
   178  1.7700000000000D+00  0.0000000000000D+00  0.0000000000000D+00
   179  1.7800000000000D+00  0.0000000000000D+00  0.0000000000000D+00
   180  1.7900000000000D+00  0.0000000000000D+00  0.0000000000000D+00
   181  1.8000000000000D+00  0.0000000000000D+00  0.0000000000000D+00
   182  1.8100000000000D+00  0.0000000000000D+00  0.0000000000000D+00
   183  1.8200000000000D+00  0.0000000000000D+00  0.0000000000000D+00
   184  1.8300000000000D+00  0.0000000000000D+00  0.0000000000000D+00
   185  1.8400000000000D+00  0.0000000000000D+00  0.0000000000000D+00
   186  1.8500000000000D+00  0.0000000000000D+00  0.0000000000000D+00
   187  1.8600000000000D+00  0.0000000000000D+00  0.0000000000000D+00
   188  1.8700000000000D+00  0.0000000000000D+00  0.0000000000000D+00
   189  1.8800000000000D+00  0.0000000000000D+00  0.0000000000000D+00
   190  1.8900000000000D+00  0.0000000000000D+00  0.0000000000000D+00
   191  1.9000000000000D+00  0.0000000000000D+00  0.0000000000000D+00
   192  1.9100000000000D+00  0.0000000000000D+00  0.0000000000000D+00
   193  1.9200000000000D+00  0.0000000000000D+00  0.0000000000000D+00
   194  1.9300000000000D+00  0.0000000000000D+00  0.0000000000000D+00
   195  1.9400000000000D+00  0.0000000000000D+00  0.0000000000000D+00
   196  1.9500000000000D+00  0.0000000000000D+00  0.0000000000000D+00
   197  1.9600000000000D+00  0.0000000000000D+00  0.0000000000000D+00
   198  1.9700000000000D+00  0.0000000000000D+00  0.0000000000000D+00
   199  1.9800000000000D+00  0.0000000000000D+00  0.0000000000000D+00
   200  1.9900000000000D+00  0.0000000000000D+00  0.0000000000000D+00
   201  2.0000000000000D+00  0.0000000000000D+00  0.0000000000000D+00
   202  2.0100000000000D+00  0.0000000000000D+00  0.0000000000000D+00
   203  2.0200000000000D+00  0.0000000000000D+00  0.0000000000000D+00
   204  2.0300000000000D+00  0.0000000000000D+00  0.0000000000000D+00
   205  2.0400000000000D+00  0.0000000000000D+00  0.0000000000000D+00
   206  2.0500000000000D+00  0.0000000000000D+00  0.0000000000000D+00
   207  2.0600000000000D+00  0.0000000000000D+00  0.0000000000000D+00
   208  2.0700000000000D+00  0.0000000000000D+00  0.0000000000000D+00
   209  2.0800000000000D+00  0.0000000000000D+00  0.0000000000000D+00
   210  2.0900000000000D+00  0.0000000000000D+00  0.0000000000000D+00
   211  2.1000000000000D+00  0.0000000000000D+00  0.0000000000000D+00
   212  2.1100000000000D+00  0.0000000000000D+00  0.0000000000000D+00
   213  2.1200000000000D+00  0.0000000000000D+00  0.0000000000000D+00
   214  2.1300000000000D+00  0.0000000000000D+00  0.0000000000000D+00
   215  2.1400000000000D+00  0.0000000000000D+00  0.0000000000000D+00
   216  2.1500000000000D+00  0.0000000000000D+00  0.0000000000000D+00
   217  2.1600000000000D+00  0.0000000000000D+00  0.0000000000000D+00
   218  2.1700000000000D+00  0.0000000000000D+00  0.0000000000000D+00
   219  2.1800000000000D+00  0.0000000000000D+00  0.0000000000000D+00
   220  2.1900000000000D+00  0.0000000000000D+00  0.0000000000000D+00
   221  2.2000000000000D+00  0.0000000000000D+00  0.0000000000000D+00
   222  2.2100000000000D+00  0.0000000000000D+00  0.0000000000000D+00
   223  2.2200000000000D+00  0.0000000000000D+00  0.0000000000000D+00
   224  2.2300000000000D+00  0.0000000000000D+00  0.0000000000000D+00
   225  2.2400000000000D+00  0.0000000000000D+00  0.0000000000000D+00
   226  2.2500000000000D+00  0.0000000000000D+00  0.0000000000000D+00
   227  2.2600000000000D+00  0.0000000000000D+00  0.0000000000000D+00
   228  2.2700000000000D+00  0.0000000000000D+00  0.0000000000000D+00
   229  2.2800000000000D+00  0.0000000000000D+00  0.0000000000000D+00
   230  2.2900000000000D+00  0.0000000000000D+00  0.0000000000000D+00
   231  2.3000000000000D+00  0.0000000000000D+00  0.0000000000000D+00
   232  2.3100000000000D+00  0.0000000000000D+00  0.0000000000000D+00
   233  2.3200000000000D+00  0.0000000000000D+00  0.0000000000000D+00
   234  2.3300000000000D+00  0.0000000000000D+00  0.0000000000000D+00
   235  2.3400000000000D+00  0.0000000000000D+00  0.0000000000000D+00
   236  2.3500000000000D+00  0.0000000000000D+00  0.0000000000000D+00
   237  2.3600000000000D+00  0.0000000000000D+00  0.0000000000000D+00
   238  2.3700000000000D+00  0.0000000000000D+00  0.0000000000000D+00
   239  2.3800000000000D+00  0.0000000000000D+00  0.0000000000000D+00
   240  2.3900000000000D+00  0.0000000000000D+00  0.0000000000000D+00
   241  2.4000000000000D+00  0.0000000000000D+00  0.0000000000000D+00
   242  2.4100000000000D+00  0.0000000000000D+00  0.0000000000000D+00
   243  2.4200000000000D+00  0.0000000000000D+00  0.0000000000000D+00
   244  2.4300000000000D+00  0.0000000000000D+00  0.0000000000000D+00
   245  2.4400000000000D+00  0.0000000000000D+00  0.0000000000000D+00
   246  2.4500000000000D+00  0.0000000000000D+00  0.0000000000000D+00
   247  2.4600000000000D+00  0.0000000000000D+00  0.0000000000000D+00
   248  2.4700000000000D+00  0.0000000000000D+00  0.0000000000000D+00
   249  2.4800000000000D+00  0.0000000000000D+00  0.0000000000000D+00
   250  2.4900000000000D+00  0.0000000000000D+00  0.0000000000000D+00
   251  2.5000000000000D+00  0.0000000000000D+00  0.0000000000000D+00
   252  2.5100000000000D+00  0.0000000000000D+00  0.0000000000000D+00
   253  2.5200000000000D+00  0.0000000000000D+00  0.0000000000000D+00
   254  2.5300000000000D+00  0.0000000000000D+00  0.0000000000000D+00
   255  2.5400000000000D+00  0.0000000000000D+00  0.0000000000000D+00
   256  2.5500000000000D+00  0.0000000000000D+00  0.0000000000000D+00
   257  2.5600000000000D+00  0.0000000000000D+00  0.0000000000000D+00
   258  2.5700000000000D+00  0.0000000000000D+00  0.0000000000000D+00
   259  2.5800000000000D+00  0.0000000000000D+00  0.0000000000000D+00
   260  2.5900000000000D+00  0.0000000000000D+00  0.0000000000000D+00
   261  2.6000000000000D+00  0.0000000000000D+00  0.0000000000000D+00
   262  2.6100000000000D+00  0.0000000000000D+00  0.0000000000000D+00
   263  2.6200000000000D+00  0.0000000000000D+00  0.0000000000000D+00
   264  2.6300000000000D+00  0.0000000000000D+00  0.0000000000000D+00
   265  2.6400000000000D+00  0.0000000000000D+00  0.0000000000000D+00
   266  2.6500000000000D+00  0.0000000000000D+00  0.0000000000000D+00
   267  2.6600000000000D+00  0.0000000000000D+00  0.0000000000000D+00
   268  2.6700000000000D+00  0.0000000000000D+00  0.0000000000000D+00
   269  2.6800000000000D+00  0.0000000000000D+00  0.0000000000000D+00
   270  2.6900000000000D+00  0.0000000000000D+00  0.0000000000000D+00
   271  2.7000000000000D+00  0.0000000000000D+00  0.0000000000000D+00
   272  2.7100000000000D+00  0.0000000000000D+00  0.0000000000000D+00
   273  2.7200000000000D+00  0.0000000000000D+00  0.0000000000000D+00
   274  2.7300000000000D+00  0.0000000000000D+00  0.0000000000000D+00
   275  2.7400000000000D+00  0.0000000000000D+00  0.0000000000000D+00
   276  2.7500000000000D+00  0.0000000000000D+00  0.0000000000000D+00
   277  2.7600000000000D+00  0.0000000000000D+00  0.0000000000000D+00
   278  2.7700000000000D+00  0.0000000000000D+00  0.0000000000000D+00
   279  2.7800000000000D+00  0.0000000000000D+00  0.0000000000000D+00
   280  2.7900000000000D+00  0.0000000000000D+00  0.0000000000000D+00
   281  2.8000000000000D+00  0.0000000000000D+00  0.0000000000000D+00
   282  2.8100000000000D+00  0.0000000000000D+00  0.0000000000000D+00
   283  2.8200000000000D+00  0.0000000000000D+00  0.0000000000000D+00
   284  2.8300000000000D+00  0.0000000000000D+00  0.0000000000000D+00
   285  2.8400000000000D+00  0.0000000000000D+00  0.0000000000000D+00
   286  2.8500000000000D+00  0.0000000000000D+00  0.0000000000000D+00
   287  2.8600000000000D+00  0.0000000000000D+00  0.0000000000000D+00
   288  2.8700000000000D+00  0.0000000000000D+00  0.0000000000000D+00
   289  2.8800000000000D+00  0.0000000000000D+00  0.0000000000000D+00
   290  2.8900000000000D+00  0.0000000000000D+00  0.0000000000000D+00
   291  2.9000000000000D+00  0.0000000000000D+00  0.0000000000000D+00
   292  2.9100000000000D+00  0.0000000000000D+00  0.0000000000000D+00
   293  2.9200000000000D+00  0.0000000000000D+00  0.0000000000000D+00
   294  2.9300000000000D+00  0.0000000000000D+00  0.0000000000000D+00
   295  2.9400000000000D+00  0.0000000000000D+00  0.0000000000000D+00
   296  2.9500000000000D+00  0.0000000000000D+00  0.0000000000000D+00
   297  2.9600000000000D+00  0.0000000000000D+00  0.0000000000000D+00
   298  2.9700000000000D+00  0.0000000000000D+00  0.0000000000000D+00
   299  2.9800000000000D+00  0.0000000000000D+00  0.0000000000000D+00
   300  2.9900000000000D+00  0.0000000000000D+00  0.0000000000000D+00
   301  3.0000000000000D+00  0.0000000000000D+00  0.0000000000000D+00
   302  3.0100000000000D+00  0.0000000000000D+00  0.0000000000000D+00
   303  3.0200000000000D+00  0.0000000000000D+00  0.0000000000000D+00
   304  3.0300000000000D+00  0.0000000000000D+00  0.0000000000000D+00
   305  3.0400000000000D+00  0.0000000000000D+00  0.0000000000000D+00
   306  3.0500000000000D+00  0.0000000000000D+00  0.0000000000000D+00
   307  3.0600000000000D+00  0.0000000000000D+00  0.0000000000000D+00
   308  3.0700000000000D+00  0.0000000000000D+00  0.0000000000000D+00
   309  3.0800000000000D+00  0.0000000000000D+00  0.0000000000000D+00
   310  3.0900000000000D+00  0.0000000000000D+00  0.0000000000000D+00
   311  3.1000000000000D+00  0.0000000000000D+00  0.0000000000000D+00
   312  3.1100000000000D+00  0.0000000000000D+00  0.0000000000000D+00
   313  3.1200000000000D+00  0.0000000000000D+00  0.0000000000000D+00
   314  3.1300000000000D+00  0.0000000000000D+00  0.0000000000000D+00
   315  3.1400000000000D+00  0.0000000000000D+00  0.0000000000000D+00
   316  3.1500000000000D+00  0.0000000000000D+00  0.0000000000000D+00
   317  3.1600000000000D+00  0.0000000000000D+00  0.0000000000000D+00
   318  3.1700000000000D+00  0.0000000000000D+00  0.0000000000000D+00
   319  3.1800000000000D+00  0.0000000000000D+00  0.0000000000000D+00
   320  3.1900000000000D+00  0.0000000000000D+00  0.0000000000000D+00
   321  3.2000000000000D+00  0.0000000000000D+00  0.0000000000000D+00
   322  3.2100000000000D+00  0.0000000000000D+00  0.0000000000000D+00
   323  3.2200000000000D+00  0.0000000000000D+00  0.0000000000000D+00
   324  3.2300000000000D+00  0.0000000000000D+00  0.0000000000000D+00
   325  3.2400000000000D+00  0.0000000000000D+00  0.0000000000000D+00
   326  3.2500000000000D+00  0.0000000000000D+00  0.0000000000000D+00
   327  3.2600000000000D+00  0.0000000000000D+00  0.0000000000000D+00
   328  3.2700000000000D+00  0.0000000000000D+00  0.0000000000000D+00
   329  3.2800000000000D+00  0.0000000000000D+00  0.0000000000000D+00
   330  3.2900000000000D+00  0.0000000000000D+00  0.0000000000000D+00
   331  3.3000000000000D+00  0.0000000000000D+00  0.0000000000000D+00
   332  3.3100000000000D+00  0.0000000000000D+00  0.0000000000000D+00
   333  3.3200000000000D+00  0.0000000000000D+00  0.0000000000000D+00
   334  3.3300000000000D+00  0.0000000000000D+00  0.0000000000000D+00
   335  3.3400000000000D+00  0.0000000000000D+00  0.0000000000000D+00
   336  3.3500000000000D+00  0.0000000000000D+00  0.0000000000000D+00
   337  3.3600000000000D+00  0.0000000000000D+00  0.0000000000000D+00
   338  3.3700000000000D+00  0.0000000000000D+00  0.0000000000000D+00
   339  3.3800000000000D+00  0.0000000000000D+00  0.0000000000000D+00
   340  3.3900000000000D+00  0.0000000000000D+00  0.0000000000000D+00
   341  3.4000000000000D+00  0.0000000000000D+00  0.0000000000000D+00
   342  3.4100000000000D+00  0.0000000000000D+00  0.0000000000000D+00
   343  3.4200000000000D+00  0.0000000000000D+00  0.0000000000000D+00
   344  3.4300000000000D+00  0.0000000000000D+00  0.0000000000000D+00
   345  3.4400000000000D+00  0.0000000000000D+00  0.0000000000000D+00
   346  3.4500000000000D+00  0.0000000000000D+00  0.0000000000000D+00
   347  3.4600000000000D+00  0.0000000000000D+00  0.0000000000000D+00
   348  3.4700000000000D+00  0.0000000000000D+00  0.0000000000000D+00
   349  3.4800000000000D+00  0.0000000000000D+00  0.0000000000000D+00
   350  3.4900000000000D+00  0.0000000000000D+00  0.0000000000000D+00
   351  3.5000000000000D+00  0.0000000000000D+00  0.0000000000000D+00
   352  3.5100000000000D+00  0.0000000000000D+00  0.0000000000000D+00
   353  3.5200000000000D+00  0.0000000000000D+00  0.0000000000000D+00
   354  3.5300000000000D+00  0.0000000000000D+00  0.0000000000000D+00
   355  3.5400000000000D+00  0.0000000000000D+00  0.0000000000000D+00
   356  3.5500000000000D+00  0.0000000000000D+00  0.0000000000000D+00
   357  3.5600000000000D+00  0.0000000000000D+00  0.0000000000000D+00
   358  3.5700000000000D+00  0.0000000000000D+00  0.0000000000000D+00
   359  3.5800000000000D+00  0.0000000000000D+00  0.0000000000000D+00
   360  3.5900000000000D+00  0.0000000000000D+00  0.0000000000000D+00
   361  3.6000000000000D+00  0.0000000000000D+00  0.0000000000000D+00
   362  3.6100000000000D+00  0.0000000000000D+00  0.0000000000000D+00
   363  3.6200000000000D+00  0.0000000000000D+00  0.0000000000000D+00
   364  3.6300000000000D+00  0.0000000000000D+00  0.0000000000000D+00
   365  3.6400000000000D+00  0.0000000000000D+00  0.0000000000000D+00
   366  3.6500000000000D+00  0.0000000000000D+00  0.0000000000000D+00
   367  3.6600000000000D+00  0.0000000000000D+00  0.0000000000000D+00
   368  3.6700000000000D+00  0.0000000000000D+00  0.0000000000000D+00
   369  3.6800000000000D+00  0.0000000000000D+00  0.0000000000000D+00
   370  3.6900000000000D+00  0.0000000000000D+00  0.0000000000000D+00
   371  3.7000000000000D+00  0.0000000000000D+00  0.0000000000000D+00
   372  3.7100000000000D+00  0.0000000000000D+00  0.0000000000000D+00
   373  3.7200000000000D+00  0.0000000000000D+00  0.0000000000000D+00
   374  3.7300000000000D+00  0.0000000000000D+00  0.0000000000000D+00
   375  3.7400000000000D+00  0.0000000000000D+00  0.0000000000000D+00
   376  3.7500000000000D+00  0.0000000000000D+00  0.0000000000000D+00
   377  3.7600000000000D+00  0.0000000000000D+00  0.0000000000000D+00
   378  3.7700000000000D+00  0.0000000000000D+00  0.0000000000000D+00
   379  3.7800000000000D+00  0.0000000000000D+00  0.0000000000000D+00
   380  3.7900000000000D+00  0.0000000000000D+00  0.0000000000000D+00
   381  3.8000000000000D+00  0.0000000000000D+00  0.0000000000000D+00
   382  3.8100000000000D+00  0.0000000000000D+00  0.0000000000000D+00
   383  3.8200000000000D+00  0.0000000000000D+00  0.0000000000000D+00
   384  3.8300000000000D+00  0.0000000000000D+00  0.0000000000000D+00
   385  3.8400000000000D+00  0.0000000000000D+00  0.0000000000000D+00
   386  3.8500000000000D+00  0.0000000000000D+00  0.0000000000000D+00
   387  3.8600000000000D+00  0.0000000000000D+00  0.0000000000000D+00
   388  3.8700000000000D+00  0.0000000000000D+00  0.0000000000000D+00
   389  3.8800000000000D+00  0.0000000000000D+00  0.0000000000000D+00
   390  3.8900000000000D+00  0.0000000000000D+00  0.0000000000000D+00
   391  3.9000000000000D+00  0.0000000000000D+00  0.0000000000000D+00
   392  3.9100000000000D+00  0.0000000000000D+00  0.0000000000000D+00
   393  3.9200000000000D+00  0.0000000000000D+00  0.0000000000000D+00
   394  3.9300000000000D+00  0.0000000000000D+00  0.0000000000000D+00
   395  3.9400000000000D+00  0.0000000000000D+00  0.0000000000000D+00
   396  3.9500000000000D+00  0.0000000000000D+00  0.0000000000000D+00
   397  3.9600000000000D+00  0.0000000000000D+00  0.0000000000000D+00
   398  3.9700000000000D+00  0.0000000000000D+00  0.0000000000000D+00
   399  3.9800000000000D+00  0.0000000000000D+00  0.0000000000000D+00
   400  3.9900000000000D+00  0.0000000000000D+00  0.0000000000000D+00
   401  4.0000000000000D+00  0.0000000000000D+00  0.0000000000000D+00
   402  4.0100000000000D+00  0.0000000000000D+00  0.0000000000000D+00
   403  4.0200000000000D+00  0.0000000000000D+00  0.0000000000000D+00
   404  4.0300000000000D+00  0.0000000000000D+00  0.0000000000000D+00
   405  4.0400000000000D+00  0.0000000000000D+00  0.0000000000000D+00
   406  4.0500000000000D+00  0.0000000000000D+00  0.0000000000000D+00
   407  4.0600000000000D+00  0.0000000000000D+00  0.0000000000000D+00
   408  4.0700000000000D+00  0.0000000000000D+00  0.0000000000000D+00
   409  4.0800000000000D+00  0.0000000000000D+00  0.0000000000000D+00
   410  4.0900000000000D+00  0.0000000000000D+00  0.0000000000000D+00
   411  4.1000000000000D+00  0.0000000000000D+00  0.0000000000000D+00
   412  4.1100000000000D+00  0.0000000000000D+00  0.0000000000000D+00
   413  4.1200000000000D+00  0.0000000000000D+00  0.0000000000000D+00
   414  4.1300000000000D+00  0.0000000000000D+00  0.0000000000000D+00
   415  4.1400000000000D+00  0.0000000000000D+00  0.0000000000000D+00
   416  4.1500000000000D+00  0.0000000000000D+00  0.0000000000000D+00
   417  4.1600000000000D+00  0.0000000000000D+00  0.0000000000000D+00
   418  4.1700000000000D+00  0.0000000000000D+00  0.0000000000000D+00
   419  4.1800000000000D+00  0.0000000000000D+00  0.0000000000000D+00
   420  4.1900000000000D+00  0.0000000000000D+00  0.0000000000000D+00
   421  4.2000000000000D+00  0.0000000000000D+00  0.0000000000000D+00
   422  4.2100000000000D+00  0.0000000000000D+00  0.0000000000000D+00