Sn    ONCVPSP-3.3.0  r_core=   2.27326   2.62311   3.13707
     50.0000      4.0000      220117    zatom,zion,pspd
     8      11   2     4   600     0    pspcod,pspxc,lmax,lloc,mmax,r2well
  5.99000000  0.00000000  0.00000000    rchrg fchrg qchrg
     2     2     2     0     0    nproj
     1     1           extension_switch
   0                         4.4629441692256D+00  5.4855308185606D-01
     1  0.0000000000000D+00  1.3623407957297D-12 -1.4053092023403D-11
     2  1.0000000000000D-02  1.4857240813060D-02  1.6826039015241D-02
     3  2.0000000000000D-02  2.9725228889322D-02  3.3573379758814D-02
     4  3.0000000000000D-02  4.4614662662428D-02  5.0163622376902D-02
     5  4.0000000000000D-02  5.9536143041632D-02  6.6518962808861D-02
     6  5.0000000000000D-02  7.4500124986130D-02  8.2562488081046D-02
     7  6.0000000000000D-02  8.9516869482219D-02  9.8218468487229D-02
     8  7.0000000000000D-02  1.0459639605599D-01  1.1341264563436D-01
     9  8.0000000000000D-02  1.1974843595284D-01  1.2807251534641D-01
    10  9.0000000000000D-02  1.3498238611340D-01  1.4212760443672D-01
    11  1.0000000000000D-01  1.5030726407341D-01  1.5550974037987D-01
    12  1.1000000000000D-01  1.6573166391272D-01  1.6815331293873D-01
    13  1.2000000000000D-01  1.8126371337597D-01  1.7999552682923D-01
    14  1.3000000000000D-01  1.9691103228432D-01  1.9097664453650D-01
    15  1.4000000000000D-01  2.1268069235442D-01  2.0104021842915D-01
    16  1.5000000000000D-01  2.2857917853729D-01  2.1013331135530D-01
    17  1.6000000000000D-01  2.4461235198562D-01  2.1820670494307D-01
    18  1.7000000000000D-01  2.6078541475397D-01  2.2521509487048D-01
    19  1.8000000000000D-01  2.7710287633208D-01  2.3111727241381D-01
    20  1.9000000000000D-01  2.9356852210633D-01  2.3587629163086D-01
    21  2.0000000000000D-01  3.1018538383992D-01  2.3945962158427D-01
    22  2.1000000000000D-01  3.2695571225686D-01  2.4183928306152D-01
    23  2.2000000000000D-01  3.4388095180959D-01  2.4299196930108D-01
    24  2.3000000000000D-01  3.6096171770434D-01  2.4289915028922D-01
    25  2.4000000000000D-01  3.7819777525255D-01  2.4154716024796D-01
    26  2.5000000000000D-01  3.9558802161090D-01  2.3892726799278D-01
    27  2.6000000000000D-01  4.1313046996592D-01  2.3503572989700D-01
    28  2.7000000000000D-01  4.3082223621334D-01  2.2987382525985D-01
    29  2.8000000000000D-01  4.4865952817556D-01  2.2344787393565D-01
    30  2.9000000000000D-01  4.6663763739428D-01  2.1576923614253D-01
    31  3.0000000000000D-01  4.8475093352857D-01  2.0685429443050D-01
    32  3.1000000000000D-01  5.0299286138213D-01  1.9672441785025D-01
    33  3.2000000000000D-01  5.2135594057645D-01  1.8540590842547D-01
    34  3.3000000000000D-01  5.3983176787998D-01  1.7292993009256D-01
    35  3.4000000000000D-01  5.5841102219644D-01  1.5933242033232D-01
    36  3.5000000000000D-01  5.7708347220857D-01  1.4465398477816D-01
    37  3.6000000000000D-01  5.9583798666679D-01  1.2893977514419D-01
    38  3.7000000000000D-01  6.1466254730536D-01  1.1223935087482D-01
    39  3.8000000000000D-01  6.3354426436175D-01  9.4606524973738D-02
    40  3.9000000000000D-01  6.5246939466844D-01  7.6099194525497D-02
    41  4.0000000000000D-01  6.7142336227934D-01  5.6779156476051D-02
    42  4.1000000000000D-01  6.9039078158686D-01  3.6711909290432D-02
    43  4.2000000000000D-01  7.0935548287874D-01  1.5966441154773D-02
    44  4.3000000000000D-01  7.2830054027784D-01 -5.3849945624711D-03
    45  4.4000000000000D-01  7.4720830200158D-01 -2.7267115830978D-02
    46  4.5000000000000D-01  7.6606042287177D-01 -4.9601859658798D-02
    47  4.6000000000000D-01  7.8483789899976D-01 -7.2308640131429D-02
    48  4.7000000000000D-01  8.0352110456607D-01 -9.5304615911961D-02
    49  4.8000000000000D-01  8.2208983060816D-01 -1.1850496629072D-01
    50  4.9000000000000D-01  8.4052332572488D-01 -1.4182317484263D-01
    51  5.0000000000000D-01  8.5880033860079D-01 -1.6517131972284D-01
    52  5.1000000000000D-01  8.7689916224915D-01 -1.8846036960737D-01
    53  5.2000000000000D-01  8.9479767986740D-01 -2.1160048426492D-01
    54  5.3000000000000D-01  9.1247341219507D-01 -2.3450131872884D-01
    55  5.4000000000000D-01  9.2990356625966D-01 -2.5707233002468D-01
    56  5.5000000000000D-01  9.4706508539265D-01 -2.7922308539897D-01
    57  5.6000000000000D-01  9.6393470039417D-01 -3.0086357098853D-01
    58  5.7000000000000D-01  9.8048898172173D-01 -3.2190449986683D-01
    59  5.8000000000000D-01  9.9670439257575D-01 -3.4225761840549D-01
    60  5.9000000000000D-01  1.0125573427520D+00 -3.6183600989344D-01
    61  6.0000000000000D-01  1.0280242431290D+00 -3.8055439436478D-01
    62  6.1000000000000D-01  1.0430815606560D+00 -3.9832942359900D-01
    63  6.2000000000000D-01  1.0577058737074D+00 -4.1507997027247D-01
    64  6.3000000000000D-01  1.0718739276657D+00 -4.3072741025999D-01
    65  6.4000000000000D-01  1.0855626905962D+00 -4.4519589710797D-01
    66  6.5000000000000D-01  1.0987494088762D+00 -4.5841262772719D-01
    67  6.6000000000000D-01  1.1114116626394D+00 -4.7030809838290D-01
    68  6.7000000000000D-01  1.1235274208992D+00 -4.8081635009327D-01
    69  6.8000000000000D-01  1.1350750962124D+00 -4.8987520258311D-01
    70  6.9000000000000D-01  1.1460335987481D+00 -4.9742647597917D-01
    71  7.0000000000000D-01  1.1563823896256D+00 -5.0341619947587D-01
    72  7.1000000000000D-01  1.1661015333892D+00 -5.0779480624456D-01
    73  7.2000000000000D-01  1.1751717494862D+00 -5.1051731390752D-01
    74  7.3000000000000D-01  1.1835744626216D+00 -5.1154348994785D-01
    75  7.4000000000000D-01  1.1912918518592D+00 -5.1083800147845D-01
    76  7.5000000000000D-01  1.1983068983488D+00 -5.0837054884784D-01
    77  7.6000000000000D-01  1.2046034315556D+00 -5.0411598261693D-01
    78  7.7000000000000D-01  1.2101661738761D+00 -4.9805440349872D-01
    79  7.8000000000000D-01  1.2149807835272D+00 -4.9017124491226D-01
    80  7.9000000000000D-01  1.2190338955977D+00 -4.8045733786348D-01
    81  8.0000000000000D-01  1.2223131611580D+00 -4.6890895792677D-01
    82  8.1000000000000D-01  1.2248072843272D+00 -4.5552785416434D-01
    83  8.2000000000000D-01  1.2265060572016D+00 -4.4032125988361D-01
    84  8.3000000000000D-01  1.2274003925541D+00 -4.2330188519653D-01
    85  8.4000000000000D-01  1.2274823542189D+00 -4.0448789140880D-01
    86  8.5000000000000D-01  1.2267451850812D+00 -3.8390284733080D-01
    87  8.6000000000000D-01  1.2251833325985D+00 -3.6157566766564D-01
    88  8.7000000000000D-01  1.2227924717839D+00 -3.3754053369265D-01
    89  8.8000000000000D-01  1.2195695255902D+00 -3.1183679652724D-01
    90  8.9000000000000D-01  1.2155126826372D+00 -2.8450886329912D-01
    91  9.0000000000000D-01  1.2106214122338D+00 -2.5560606665118D-01
    92  9.1000000000000D-01  1.2048964766497D+00 -2.2518251801989D-01
    93  9.2000000000000D-01  1.1983399406020D+00 -1.9329694521530D-01
    94  9.3000000000000D-01  1.1909551779230D+00 -1.6001251487383D-01
    95  9.4000000000000D-01  1.1827468753899D+00 -1.2539664041021D-01
    96  9.5000000000000D-01  1.1737210336947D+00 -8.9520776145814D-02
    97  9.6000000000000D-01  1.1638849655484D+00 -5.2460198339226D-02
    98  9.7000000000000D-01  1.1532472909135D+00 -1.4293773890248D-02
    99  9.8000000000000D-01  1.1418179293685D+00  2.4896282467875D-02
   100  9.9000000000000D-01  1.1296080896163D+00  6.5024661633519D-02
   101  1.0000000000000D+00  1.1166302561512D+00  1.0600322336753D-01
   102  1.0100000000000D+00  1.1028981731100D+00  1.4774126836485D-01
   103  1.0200000000000D+00  1.0884268253359D+00  1.9014581821143D-01
   104  1.0300000000000D+00  1.0732324166942D+00  2.3312190224384D-01
   105  1.0400000000000D+00  1.0573323456804D+00  2.7657285030742D-01
   106  1.0500000000000D+00  1.0407451783728D+00  3.2040059038689D-01
   107  1.0600000000000D+00  1.0234906187840D+00  3.6450595006957D-01
   108  1.0700000000000D+00  1.0055894766740D+00  4.0878896078896D-01
   109  1.0800000000000D+00  9.8706363289261D-01  4.5314916378828D-01
   110  1.0900000000000D+00  9.6793600232479D-01  4.9748591673985D-01
   111  1.1000000000000D+00  9.4823049451787D-01  5.4169869995575D-01
   112  1.1100000000000D+00  9.2797197207595D-01  5.8568742112924D-01
   113  1.1200000000000D+00  9.0718620691070D-01  6.2935271755448D-01
   114  1.1300000000000D+00  8.8589983444355D-01  6.7259625478392D-01
   115  1.1400000000000D+00  8.6414030585838D-01  7.1532102069626D-01
   116  1.1500000000000D+00  8.4193583850895D-01  7.5743161397008D-01
   117  1.1600000000000D+00  8.1931536458930D-01  7.9883452598077D-01
   118  1.1700000000000D+00  7.9630847817878D-01  8.3943841516398D-01
   119  1.1800000000000D+00  7.7294538077771D-01  8.7915437291693D-01
   120  1.1900000000000D+00  7.4925682545286D-01  9.1789618014771D-01
   121  1.2000000000000D+00  7.2527405971544D-01  9.5558055362247D-01
   122  1.2100000000000D+00  7.0102876725582D-01  9.9212738128251D-01
   123  1.2200000000000D+00  6.7655300866356D-01  1.0274599457685D+00
   124  1.2300000000000D+00  6.5187916126240D-01  1.0615051354290D+00
   125  1.2400000000000D+00  6.2703985819195D-01  1.0941936421276D+00
   126  1.2500000000000D+00  6.0206792686956D-01  1.1254601452216D+00
   127  1.2600000000000D+00  5.7699632696740D-01  1.1552434811521D+00
   128  1.2700000000000D+00  5.5185808804040D-01  1.1834867981199D+00
   129  1.2800000000000D+00  5.2668624694144D-01  1.2101376953757D+00
   130  1.2900000000000D+00  5.0151378516088D-01  1.2351483467509D+00
   131  1.3000000000000D+00  4.7637356622707D-01  1.2584756080694D+00
   132  1.3100000000000D+00  4.5129827330496D-01  1.2800811081520D+00
   133  1.3200000000000D+00  4.2632034712827D-01  1.2999313232313D+00
   134  1.3300000000000D+00  4.0147192440085D-01  1.3179976345914D+00
   135  1.3400000000000D+00  3.7678477680187D-01  1.3342563693399D+00
   136  1.3500000000000D+00  3.5229025072569D-01  1.3486888243366D+00
   137  1.3600000000000D+00  3.2801920788949D-01  1.3612812732388D+00
   138  1.3700000000000D+00  3.0400196693621D-01  1.3720249568198D+00
   139  1.3800000000000D+00  2.8026824615802D-01  1.3809160567313D+00
   140  1.3900000000000D+00  2.5684710746817D-01  1.3879556528610D+00
   141  1.4000000000000D+00  2.3376690173696D-01  1.3931496646748D+00
   142  1.4100000000000D+00  2.1105521561363D-01  1.3965087768054D+00
   143  1.4200000000000D+00  1.8873881994847D-01  1.3980483493142D+00
   144  1.4300000000000D+00  1.6684361992092D-01  1.3977883131406D+00
   145  1.4400000000000D+00  1.4539460699043D-01  1.3957530511310D+00
   146  1.4500000000000D+00  1.2441581276145D-01  1.3919712653575D+00
   147  1.4600000000000D+00  1.0393026487063D-01  1.3864758312205D+00
   148  1.4700000000000D+00  8.3959944986427D-02  1.3793036390597D+00
   149  1.4800000000000D+00  6.4525749006930D-02  1.3704954239848D+00
   150  1.4900000000000D+00  4.5647449552679D-02  1.3600955845996D+00
   151  1.5000000000000D+00  2.7343660814264D-02  1.3481519915268D+00
   152  1.5100000000000D+00  9.6318058538690D-03  1.3347157864025D+00
   153  1.5200000000000D+00 -7.4719135946583D-03  1.3198411723319D+00
   154  1.5300000000000D+00 -2.3952544743982D-02  1.3035851965737D+00
   155  1.5400000000000D+00 -3.9796408742896D-02  1.2860075264215D+00
   156  1.5500000000000D+00 -5.4991122982849D-02  1.2671702191692D+00
   157  1.5600000000000D+00 -6.9525620666465D-02  1.2471374871065D+00
   158  1.5700000000000D+00 -8.3390167615605D-02  1.2259754584951D+00
   159  1.5800000000000D+00 -9.6576376254643D-02  1.2037519354809D+00
   160  1.5900000000000D+00 -1.0907721677929D-01  1.1805361498920D+00
   161  1.6000000000000D+00 -1.2088702543908D-01  1.1563985179181D+00
   162  1.6100000000000D+00 -1.3200150997114D-01  1.1314103945654D+00
   163  1.6200000000000D+00 -1.4241775211616D-01  1.1056438289311D+00
   164  1.6300000000000D+00 -1.5213420726865D-01  1.0791713211132D+00
   165  1.6400000000000D+00 -1.6115070120722D-01  1.0520655818247D+00
   166  1.6500000000000D+00 -1.6946842396291D-01  1.0243992954499D+00
   167  1.6600000000000D+00 -1.7708992078993D-01  9.9624488760565D-01
   168  1.6700000000000D+00 -1.8401908030235D-01  9.6767429786299D-01
   169  1.6800000000000D+00 -1.9026111975765D-01  9.3875875866787D-01
   170  1.6900000000000D+00 -1.9582256755881D-01  9.0956858101755D-01
   171  1.7000000000000D+00 -2.0071124296881D-01  8.8017294790313D-01
   172  1.7100000000000D+00 -2.0493623312051D-01  8.5063971594389D-01
   173  1.7200000000000D+00 -2.0850786732445D-01  8.2103522621519D-01
   174  1.7300000000000D+00 -2.1143768877271D-01  7.9142412450931D-01
   175  1.7400000000000D+00 -2.1373842364503D-01  7.6186919206668D-01
   176  1.7500000000000D+00 -2.1542394773460D-01  7.3243118675482D-01
   177  1.7600000000000D+00 -2.1650925059818D-01  7.0316869583524D-01
   178  1.7700000000000D+00 -2.1701039737111D-01  6.7413799993963D-01
   179  1.7800000000000D+00 -2.1694448824567D-01  6.4539294958488D-01
   180  1.7900000000000D+00 -2.1632961577883D-01  6.1698485339369D-01
   181  1.8000000000000D+00 -2.1518482002127D-01  5.8896237958775D-01
   182  1.8100000000000D+00 -2.1353004165104D-01  5.6137146951163D-01
   183  1.8200000000000D+00 -2.1138607311264D-01  5.3425526479105D-01
   184  1.8300000000000D+00 -2.0877450793951D-01  5.0765404679491D-01
   185  1.8400000000000D+00 -2.0571768829099D-01  4.8160518966297D-01
   186  1.8500000000000D+00 -2.0223865085768D-01  4.5614312583958D-01
   187  1.8600000000000D+00 -1.9836107120713D-01  4.3129932473086D-01
   188  1.8700000000000D+00 -1.9410920669322D-01  4.0710228394967D-01
   189  1.8800000000000D+00 -1.8950783804282D-01  3.8357753290660D-01
   190  1.8900000000000D+00 -1.8458220971313D-01  3.6074764892629D-01
   191  1.9000000000000D+00 -1.7935796916902D-01  3.3863228465789D-01
   192  1.9100000000000D+00 -1.7386110515296D-01  3.1724820770406D-01
   193  1.9200000000000D+00 -1.6811788511442D-01  2.9660935044191D-01
   194  1.9300000000000D+00 -1.6215479187453D-01  2.7672687121683D-01
   195  1.9400000000000D+00 -1.5599845968041D-01  2.5760922492057D-01
   196  1.9500000000000D+00 -1.4967560975291D-01  2.3926224339926D-01
   197  1.9600000000000D+00 -1.4321298545565D-01  2.2168922461560D-01
   198  1.9700000000000D+00 -1.3663728721154D-01  2.0489102981206D-01
   199  1.9800000000000D+00 -1.2997510728730D-01  1.8886618859866D-01
   200  1.9900000000000D+00 -1.2325286456493D-01  1.7361101024669D-01
   201  2.0000000000000D+00 -1.1649673944000D-01  1.5911970161171D-01
   202  2.0100000000000D+00 -1.0973260894382D-01  1.4538448988787D-01
   203  2.0200000000000D+00 -1.0298598223836D-01  1.3239575004091D-01
   204  2.0300000000000D+00 -9.6281936590375D-02  1.2014213590685D-01
   205  2.0400000000000D+00 -8.9645053934920D-02  1.0861071403045D-01
   206  2.0500000000000D+00 -8.3099358191063D-02  9.7787099627366D-02
   207  2.0600000000000D+00 -7.6668253371606D-02  8.7655593705690D-02
   208  2.0700000000000D+00 -7.0374462693285D-02  7.8199320447512D-02
   209  2.0800000000000D+00 -6.4239968726191D-02  6.9400364200865D-02
   210  2.0900000000000D+00 -5.8285954719778D-02  6.1239905156792D-02
   211  2.1000000000000D+00 -5.2532747261463D-02  5.3698352633623D-02
   212  2.1100000000000D+00 -4.6999760254320D-02  4.6755475964829D-02
   213  2.1200000000000D+00 -4.1705440482758D-02  4.0390530965322D-02
   214  2.1300000000000D+00 -3.6667214721652D-02  3.4582382413700D-02
   215  2.1400000000000D+00 -3.1901438547662D-02  2.9309621290720D-02
   216  2.1500000000000D+00 -2.7423347010317D-02  2.4550675445304D-02
   217  2.1600000000000D+00 -2.3247007080158D-02  2.0283914824858D-02
   218  2.1700000000000D+00 -1.9385272190161D-02  1.6487748167182D-02
   219  2.1800000000000D+00 -1.5849738779025D-02  1.3140712524765D-02
   220  2.1900000000000D+00 -1.2650704946403D-02  1.0221554755476D-02
   221  2.2000000000000D+00 -9.7989188915270D-03  7.7102680020362D-03
   222  2.2100000000000D+00 -7.2991569591965D-03  5.5847069993105D-03
   223  2.2200000000000D+00 -5.1547742516547D-03  3.8231372206135D-03
   224  2.2300000000000D+00 -3.3635397394592D-03  2.4024706303100D-03
   225  2.2400000000000D+00 -1.9550088550504D-03  1.3164975468986D-03
   226  2.2500000000000D+00 -9.4303912213425D-04  5.5135826435219D-04
   227  2.2600000000000D+00 -3.0927768469645D-04  7.9980253861764D-05
   228  2.2700000000000D+00  1.6048487330858D-05 -1.4579593342798D-04
   229  2.2800000000000D+00  1.1330809138866D-04 -1.7863986559450D-04
   230  2.2900000000000D+00  7.8878141306963D-05 -1.0272745715488D-04
   231  2.3000000000000D+00  3.7972359183269D-06 -4.6124239962819D-06
   232  2.3100000000000D+00 -2.6706849533958D-05  3.1880666359764D-05
   233  2.3200000000000D+00 -2.0255923039180D-05  2.3534107845260D-05
   234  2.3300000000000D+00  1.3471039907756D-06 -1.7582739807416D-06
   235  2.3400000000000D+00  5.3864463391528D-06 -6.9145072805286D-06
   236  2.3500000000000D+00  3.2238428601291D-06 -4.0855014167347D-06
   237  2.3600000000000D+00 -9.3548641928512D-08  2.3882066527730D-07
   238  2.3700000000000D+00 -1.9511612643611D-07  4.9811266268742D-07
   239  2.3800000000000D+00 -8.5932730228205D-08  2.1937797683774D-07
   240  2.3900000000000D+00  0.0000000000000D+00  0.0000000000000D+00
   241  2.4000000000000D+00  0.0000000000000D+00  0.0000000000000D+00
   242  2.4100000000000D+00  0.0000000000000D+00  0.0000000000000D+00
   243  2.4200000000000D+00  0.0000000000000D+00  0.0000000000000D+00
   244  2.4300000000000D+00  0.0000000000000D+00  0.0000000000000D+00
   245  2.4400000000000D+00  0.0000000000000D+00  0.0000000000000D+00
   246  2.4500000000000D+00  0.0000000000000D+00  0.0000000000000D+00
   247  2.4600000000000D+00  0.0000000000000D+00  0.0000000000000D+00
   248  2.4700000000000D+00  0.0000000000000D+00  0.0000000000000D+00
   249  2.4800000000000D+00  0.0000000000000D+00  0.0000000000000D+00
   250  2.4900000000000D+00  0.0000000000000D+00  0.0000000000000D+00
   251  2.5000000000000D+00  0.0000000000000D+00  0.0000000000000D+00
   252  2.5100000000000D+00  0.0000000000000D+00  0.0000000000000D+00
   253  2.5200000000000D+00  0.0000000000000D+00  0.0000000000000D+00
   254  2.5300000000000D+00  0.0000000000000D+00  0.0000000000000D+00
   255  2.5400000000000D+00  0.0000000000000D+00  0.0000000000000D+00
   256  2.5500000000000D+00  0.0000000000000D+00  0.0000000000000D+00
   257  2.5600000000000D+00  0.0000000000000D+00  0.0000000000000D+00
   258  2.5700000000000D+00  0.0000000000000D+00  0.0000000000000D+00
   259  2.5800000000000D+00  0.0000000000000D+00  0.0000000000000D+00
   260  2.5900000000000D+00  0.0000000000000D+00  0.0000000000000D+00
   261  2.6000000000000D+00  0.0000000000000D+00  0.0000000000000D+00
   262  2.6100000000000D+00  0.0000000000000D+00  0.0000000000000D+00
   263  2.6200000000000D+00  0.0000000000000D+00  0.0000000000000D+00
   264  2.6300000000000D+00  0.0000000000000D+00  0.0000000000000D+00
   265  2.6400000000000D+00  0.0000000000000D+00  0.0000000000000D+00
   266  2.6500000000000D+00  0.0000000000000D+00  0.0000000000000D+00
   267  2.6600000000000D+00  0.0000000000000D+00  0.0000000000000D+00
   268  2.6700000000000D+00  0.0000000000000D+00  0.0000000000000D+00
   269  2.6800000000000D+00  0.0000000000000D+00  0.0000000000000D+00
   270  2.6900000000000D+00  0.0000000000000D+00  0.0000000000000D+00
   271  2.7000000000000D+00  0.0000000000000D+00  0.0000000000000D+00
   272  2.7100000000000D+00  0.0000000000000D+00  0.0000000000000D+00
   273  2.7200000000000D+00  0.0000000000000D+00  0.0000000000000D+00
   274  2.7300000000000D+00  0.0000000000000D+00  0.0000000000000D+00
   275  2.7400000000000D+00  0.0000000000000D+00  0.0000000000000D+00
   276  2.7500000000000D+00  0.0000000000000D+00  0.0000000000000D+00
   277  2.7600000000000D+00  0.0000000000000D+00  0.0000000000000D+00
   278  2.7700000000000D+00  0.0000000000000D+00  0.0000000000000D+00
   279  2.7800000000000D+00  0.0000000000000D+00  0.0000000000000D+00
   280  2.7900000000000D+00  0.0000000000000D+00  0.0000000000000D+00
   281  2.8000000000000D+00  0.0000000000000D+00  0.0000000000000D+00
   282  2.8100000000000D+00  0.0000000000000D+00  0.0000000000000D+00
   283  2.8200000000000D+00  0.0000000000000D+00  0.0000000000000D+00
   284  2.8300000000000D+00  0.0000000000000D+00  0.0000000000000D+00
   285  2.8400000000000D+00  0.0000000000000D+00  0.0000000000000D+00
   286  2.8500000000000D+00  0.0000000000000D+00  0.0000000000000D+00
   287  2.8600000000000D+00  0.0000000000000D+00  0.0000000000000D+00
   288  2.8700000000000D+00  0.0000000000000D+00  0.0000000000000D+00
   289  2.8800000000000D+00  0.0000000000000D+00  0.0000000000000D+00
   290  2.8900000000000D+00  0.0000000000000D+00  0.0000000000000D+00
   291  2.9000000000000D+00  0.0000000000000D+00  0.0000000000000D+00
   292  2.9100000000000D+00  0.0000000000000D+00  0.0000000000000D+00
   293  2.9200000000000D+00  0.0000000000000D+00  0.0000000000000D+00
   294  2.9300000000000D+00  0.0000000000000D+00  0.0000000000000D+00
   295  2.9400000000000D+00  0.0000000000000D+00  0.0000000000000D+00
   296  2.9500000000000D+00  0.0000000000000D+00  0.0000000000000D+00
   297  2.9600000000000D+00  0.0000000000000D+00  0.0000000000000D+00
   298  2.9700000000000D+00  0.0000000000000D+00  0.0000000000000D+00
   299  2.9800000000000D+00  0.0000000000000D+00  0.0000000000000D+00
   300  2.9900000000000D+00  0.0000000000000D+00  0.0000000000000D+00
   301  3.0000000000000D+00  0.0000000000000D+00  0.0000000000000D+00
   302  3.0100000000000D+00  0.0000000000000D+00  0.0000000000000D+00
   303  3.0200000000000D+00  0.0000000000000D+00  0.0000000000000D+00
   304  3.0300000000000D+00  0.0000000000000D+00  0.0000000000000D+00
   305  3.0400000000000D+00  0.0000000000000D+00  0.0000000000000D+00
   306  3.0500000000000D+00  0.0000000000000D+00  0.0000000000000D+00
   307  3.0600000000000D+00  0.0000000000000D+00  0.0000000000000D+00
   308  3.0700000000000D+00  0.0000000000000D+00  0.0000000000000D+00
   309  3.0800000000000D+00  0.0000000000000D+00  0.0000000000000D+00
   310  3.0900000000000D+00  0.0000000000000D+00  0.0000000000000D+00
   311  3.1000000000000D+00  0.0000000000000D+00  0.0000000000000D+00
   312  3.1100000000000D+00  0.0000000000000D+00  0.0000000000000D+00
   313  3.1200000000000D+00  0.0000000000000D+00  0.0000000000000D+00
   314  3.1300000000000D+00  0.0000000000000D+00  0.0000000000000D+00
   315  3.1400000000000D+00  0.0000000000000D+00  0.0000000000000D+00
   316  3.1500000000000D+00  0.0000000000000D+00  0.0000000000000D+00
   317  3.1600000000000D+00  0.0000000000000D+00  0.0000000000000D+00
   318  3.1700000000000D+00  0.0000000000000D+00  0.0000000000000D+00
   319  3.1800000000000D+00  0.0000000000000D+00  0.0000000000000D+00
   320  3.1900000000000D+00  0.0000000000000D+00  0.0000000000000D+00
   321  3.2000000000000D+00  0.0000000000000D+00  0.0000000000000D+00
   322  3.2100000000000D+00  0.0000000000000D+00  0.0000000000000D+00
   323  3.2200000000000D+00  0.0000000000000D+00  0.0000000000000D+00
   324  3.2300000000000D+00  0.0000000000000D+00  0.0000000000000D+00
   325  3.2400000000000D+00  0.0000000000000D+00  0.0000000000000D+00
   326  3.2500000000000D+00  0.0000000000000D+00  0.0000000000000D+00
   327  3.2600000000000D+00  0.0000000000000D+00  0.0000000000000D+00
   328  3.2700000000000D+00  0.0000000000000D+00  0.0000000000000D+00
   329  3.2800000000000D+00  0.0000000000000D+00  0.0000000000000D+00
   330  3.2900000000000D+00  0.0000000000000D+00  0.0000000000000D+00
   331  3.3000000000000D+00  0.0000000000000D+00  0.0000000000000D+00
   332  3.3100000000000D+00  0.0000000000000D+00  0.0000000000000D+00
   333  3.3200000000000D+00  0.0000000000000D+00  0.0000000000000D+00
   334  3.3300000000000D+00  0.0000000000000D+00  0.0000000000000D+00
   335  3.3400000000000D+00  0.0000000000000D+00  0.0000000000000D+00
   336  3.3500000000000D+00  0.0000000000000D+00  0.0000000000000D+00
   337  3.3600000000000D+00  0.0000000000000D+00  0.0000000000000D+00
   338  3.3700000000000D+00  0.0000000000000D+00  0.0000000000000D+00
   339  3.3800000000000D+00  0.0000000000000D+00  0.0000000000000D+00
   340  3.3900000000000D+00  0.0000000000000D+00  0.0000000000000D+00
   341  3.4000000000000D+00  0.0000000000000D+00  0.0000000000000D+00
   342  3.4100000000000D+00  0.0000000000000D+00  0.0000000000000D+00
   343  3.4200000000000D+00  0.0000000000000D+00  0.0000000000000D+00
   344  3.4300000000000D+00  0.0000000000000D+00  0.0000000000000D+00
   345  3.4400000000000D+00  0.0000000000000D+00  0.0000000000000D+00
   346  3.4500000000000D+00  0.0000000000000D+00  0.0000000000000D+00
   347  3.4600000000000D+00  0.0000000000000D+00  0.0000000000000D+00
   348  3.4700000000000D+00  0.0000000000000D+00  0.0000000000000D+00
   349  3.4800000000000D+00  0.0000000000000D+00  0.0000000000000D+00
   350  3.4900000000000D+00  0.0000000000000D+00  0.0000000000000D+00
   351  3.5000000000000D+00  0.0000000000000D+00  0.0000000000000D+00
   352  3.5100000000000D+00  0.0000000000000D+00  0.0000000000000D+00
   353  3.5200000000000D+00  0.0000000000000D+00  0.0000000000000D+00
   354  3.5300000000000D+00  0.0000000000000D+00  0.0000000000000D+00
   355  3.5400000000000D+00  0.0000000000000D+00  0.0000000000000D+00
   356  3.5500000000000D+00  0.0000000000000D+00  0.0000000000000D+00
   357  3.5600000000000D+00  0.0000000000000D+00  0.0000000000000D+00
   358  3.5700000000000D+00  0.0000000000000D+00  0.0000000000000D+00
   359  3.5800000000000D+00  0.0000000000000D+00  0.0000000000000D+00
   360  3.5900000000000D+00  0.0000000000000D+00  0.0000000000000D+00
   361  3.6000000000000D+00  0.0000000000000D+00  0.0000000000000D+00
   362  3.6100000000000D+00  0.0000000000000D+00  0.0000000000000D+00
   363  3.6200000000000D+00  0.0000000000000D+00  0.0000000000000D+00
   364  3.6300000000000D+00  0.0000000000000D+00  0.0000000000000D+00
   365  3.6400000000000D+00  0.0000000000000D+00  0.0000000000000D+00
   366  3.6500000000000D+00  0.0000000000000D+00  0.0000000000000D+00
   367  3.6600000000000D+00  0.0000000000000D+00  0.0000000000000D+00
   368  3.6700000000000D+00  0.0000000000000D+00  0.0000000000000D+00
   369  3.6800000000000D+00  0.0000000000000D+00  0.0000000000000D+00
   370  3.6900000000000D+00  0.0000000000000D+00  0.0000000000000D+00
   371  3.7000000000000D+00  0.0000000000000D+00  0.0000000000000D+00
   372  3.7100000000000D+00  0.0000000000000D+00  0.0000000000000D+00
   373  3.7200000000000D+00  0.0000000000000D+00  0.0000000000000D+00
   374  3.7300000000000D+00  0.0000000000000D+00  0.0000000000000D+00
   375  3.7400000000000D+00  0.0000000000000D+00  0.0000000000000D+00
   376  3.7500000000000D+00  0.0000000000000D+00  0.0000000000000D+00
   377  3.7600000000000D+00  0.0000000000000D+00  0.0000000000000D+00
   378  3.7700000000000D+00  0.0000000000000D+00  0.0000000000000D+00
   379  3.7800000000000D+00  0.0000000000000D+00  0.0000000000000D+00
   380  3.7900000000000D+00  0.0000000000000D+00  0.0000000000000D+00
   381  3.8000000000000D+00  0.0000000000000D+00  0.0000000000000D+00
   382  3.8100000000000D+00  0.0000000000000D+00  0.0000000000000D+00
   383  3.8200000000000D+00  0.0000000000000D+00  0.0000000000000D+00
   384  3.8300000000000D+00  0.0000000000000D+00  0.0000000000000D+00
   385  3.8400000000000D+00  0.0000000000000D+00  0.0000000000000D+00
   386  3.8500000000000D+00  0.0000000000000D+00  0.0000000000000D+00
   387  3.8600000000000D+00  0.0000000000000D+00  0.0000000000000D+00
   388  3.8700000000000D+00  0.0000000000000D+00  0.0000000000000D+00
   389  3.8800000000000D+00  0.0000000000000D+00  0.0000000000000D+00
   390  3.8900000000000D+00  0.0000000000000D+00  0.0000000000000D+00
   391  3.9000000000000D+00  0.0000000000000D+00  0.0000000000000D+00
   392  3.9100000000000D+00  0.0000000000000D+00  0.0000000000000D+00
   393  3.9200000000000D+00  0.0000000000000D+00  0.0000000000000D+00
   394  3.9300000000000D+00  0.0000000000000D+00  0.0000000000000D+00
   395  3.9400000000000D+00  0.0000000000000D+00  0.0000000000000D+00
   396  3.9500000000000D+00  0.0000000000000D+00  0.0000000000000D+00
   397  3.9600000000000D+00  0.0000000000000D+00  0.0000000000000D+00
   398  3.9700000000000D+00  0.0000000000000D+00  0.0000000000000D+00
   399  3.9800000000000D+00  0.0000000000000D+00  0.0000000000000D+00
   400  3.9900000000000D+00  0.0000000000000D+00  0.0000000000000D+00
   401  4.0000000000000D+00  0.0000000000000D+00  0.0000000000000D+00
   402  4.0100000000000D+00  0.0000000000000D+00  0.0000000000000D+00
   403  4.0200000000000D+00  0.0000000000000D+00  0.0000000000000D+00
   404  4.0300000000000D+00  0.0000000000000D+00  0.0000000000000D+00
   405  4.0400000000000D+00  0.0000000000000D+00  0.0000000000000D+00
   406  4.0500000000000D+00  0.0000000000000D+00  0.0000000000000D+00
   407  4.0600000000000D+00  0.0000000000000D+00  0.0000000000000D+00
   408  4.0700000000000D+00  0.0000000000000D+00  0.0000000000000D+00
   409  4.0800000000000D+00  0.0000000000000D+00  0.0000000000000D+00
   410  4.0900000000000D+00  0.0000000000000D+00  0.0000000000000D+00
   411  4.1000000000000D+00  0.0000000000000D+00  0.0000000000000D+00
   412  4.1100000000000D+00  0.0000000000000D+00  0.0000000000000D+00
   413  4.1200000000000D+00  0.0000000000000D+00  0.0000000000000D+00
   414  4.1300000000000D+00  0.0000000000000D+00  0.0000000000000D+00
   415  4.1400000000000D+00  0.0000000000000D+00  0.0000000000000D+00
   416  4.1500000000000D+00  0.0000000000000D+00  0.0000000000000D+00
   417  4.1600000000000D+00  0.0000000000000D+00  0.0000000000000D+00
   418  4.1700000000000D+00  0.0000000000000D+00  0.0000000000000D+00
   419  4.1800000000000D+00  0.0000000000000D+00  0.0000000000000D+00
   420  4.1900000000000D+00  0.0000000000000D+00  0.0000000000000D+00
   421  4.2000000000000D+00  0.0000000000000D+00  0.0000000000000D+00
   422  4.2100000000000D+00  0.0000000000000D+00  0.0000000000000D+00