Ti    ONCVPSP-3.3.0  r_core=   1.35825   1.31050   1.66360
     22.0000     12.0000      220117    zatom,zion,pspd
     8      11   2     4   600     0    pspcod,pspxc,lmax,lloc,mmax,r2well
  5.99000000  0.00000000  0.00000000    rchrg fchrg qchrg
     2     2     2     0     0    nproj
     1     1           extension_switch
   0                         1.1362348497058D+01  1.2636390772650D+00
     1  0.0000000000000D+00 -1.6007383196737D-09  5.3542507094662D-09
     2  1.0000000000000D-02  8.8821753427149D-02 -4.5944416935896D-02
     3  2.0000000000000D-02  1.7734847911912D-01 -9.1422393917742D-02
     4  3.0000000000000D-02  2.6528720133519D-01 -1.3597304521302D-01
     5  4.0000000000000D-02  3.5234902206562D-01 -1.7914650854548D-01
     6  5.0000000000000D-02  4.3825109466950D-01 -2.2050924575145D-01
     7  6.0000000000000D-02  5.2271852040029D-01 -2.5964909403325D-01
     8  7.0000000000000D-02  6.0548614402956D-01 -2.9617999107957D-01
     9  8.0000000000000D-02  6.8630022638026D-01 -3.2974630267691D-01
    10  9.0000000000000D-02  7.6491997353181D-01 -3.6002668796247D-01
    11  1.0000000000000D-01  8.4111890472964D-01 -3.8673744506054D-01
    12  1.1000000000000D-01  9.1468604358267D-01 -4.0963528837711D-01
    13  1.2000000000000D-01  9.8542691992335D-01 -4.2851951816001D-01
    14  1.3000000000000D-01  1.0531643726899D+00 -4.4323355291287D-01
    15  1.4000000000000D-01  1.1177391473197D+00 -4.5366580571404D-01
    16  1.5000000000000D-01  1.1790102843661D+00 -4.5974989626594D-01
    17  1.6000000000000D-01  1.2368552993140D+00 -4.6146420140678D-01
    18  1.7000000000000D-01  1.2911701568214D+00 -4.5883075767571D-01
    19  1.8000000000000D-01  1.3418690457932D+00 -4.5191354015355D-01
    20  1.9000000000000D-01  1.3888839647623D+00 -4.4081615202762D-01
    21  2.0000000000000D-01  1.4321641299407D+00 -4.2567896898124D-01
    22  2.1000000000000D-01  1.4716752209804D+00 -4.0667579142251D-01
    23  2.2000000000000D-01  1.5073984818954D+00 -3.8401006559570D-01
    24  2.3000000000000D-01  1.5393296967005D+00 -3.5791074162361D-01
    25  2.4000000000000D-01  1.5674780610950D+00 -3.2862784239340D-01
    26  2.5000000000000D-01  1.5918649729155D+00 -2.9642782181867D-01
    27  2.6000000000000D-01  1.6125227650932D+00 -2.6158879430798D-01
    28  2.7000000000000D-01  1.6294934054426D+00 -2.2439571918347D-01
    29  2.8000000000000D-01  1.6428271877895D+00 -1.8513562428786D-01
    30  2.9000000000000D-01  1.6525814386946D+00 -1.4409295207923D-01
    31  3.0000000000000D-01  1.6588192633608D+00 -1.0154510915128D-01
    32  3.1000000000000D-01  1.6616083532305D+00 -5.7758296367569D-02
    33  3.2000000000000D-01  1.6610198763092D+00 -1.2983691716751D-02
    34  3.3000000000000D-01  1.6571274694038D+00  3.2545948336600D-02
    35  3.4000000000000D-01  1.6500063492876D+00  7.8619210713812D-02
    36  3.5000000000000D-01  1.6397325573175D+00  1.2504842101734D-01
    37  3.6000000000000D-01  1.6263823492840D+00  1.7167147188424D-01
    38  3.7000000000000D-01  1.6100317393163D+00  2.1835305416225D-01
    39  3.8000000000000D-01  1.5907562035390D+00  2.6498527138299D-01
    40  3.9000000000000D-01  1.5686305459441D+00  3.1148762910585D-01
    41  4.0000000000000D-01  1.5437289256478D+00  3.5780640201119D-01
    42  4.1000000000000D-01  1.5161250414133D+00  4.0391339293927D-01
    43  4.2000000000000D-01  1.4858924660891D+00  4.4980410921059D-01
    44  4.3000000000000D-01  1.4531051204961D+00  4.9549539233295D-01
    45  4.4000000000000D-01  1.4178378733494D+00  5.4102254741323D-01
    46  4.5000000000000D-01  1.3801672510794D+00  5.8643602807101D-01
    47  4.6000000000000D-01  1.3401722389681D+00  6.3179774122657D-01
    48  4.7000000000000D-01  1.2979351528821D+00  6.7717704365531D-01
    49  4.8000000000000D-01  1.2535425591148D+00  7.2264650852650D-01
    50  4.9000000000000D-01  1.2070862184686D+00  7.6827754515609D-01
    51  5.0000000000000D-01  1.1586640297527D+00  8.1413595880410D-01
    52  5.1000000000000D-01  1.1083809473562D+00  8.6027753946378D-01
    53  5.2000000000000D-01  1.0563498475030D+00  9.0674376916633D-01
    54  5.3000000000000D-01  1.0026923181997D+00  9.5355773633979D-01
    55  5.4000000000000D-01  9.4753934876222D-01  1.0007203432171D+00
    56  5.5000000000000D-01  8.9103189613019D-01  1.0482068881980D+00
    57  5.6000000000000D-01  8.3332130694092D-01  1.0959640995135D+00
    58  5.7000000000000D-01  7.7456957651080D-01  1.1439076895585D+00
    59  5.8000000000000D-01  7.1494942842657D-01  1.1919204909944D+00
    60  5.9000000000000D-01  6.5464420134900D-01  1.2398512262645D+00
    61  6.0000000000000D-01  5.9384753282425D-01  1.2875139516926D+00
    62  6.1000000000000D-01  5.3276283334690D-01  1.3346882059681D+00
    63  6.2000000000000D-01  4.7160254754130D-01  1.3811198808320D+00
    64  6.3000000000000D-01  4.1058720311099D-01  1.4265228192010D+00
    65  6.4000000000000D-01  3.4994425202386D-01  1.4705811332319D+00
    66  6.5000000000000D-01  2.8990671225527D-01  1.5129522219202D+00
    67  6.6000000000000D-01  2.3071162219277D-01  1.5532704551048D+00
    68  6.7000000000000D-01  1.7259832345289D-01  1.5911514784379D+00
    69  6.8000000000000D-01  1.1580659134072D-01  1.6261970820571D+00
    70  6.9000000000000D-01  6.0574635394651D-02  1.6580005647284D+00
    71  7.0000000000000D-01  7.1369953704997D-03  1.6861525152043D+00
    72  7.1000000000000D-01 -4.4277639444182D-02  1.7102469237224D+00
    73  7.2000000000000D-01 -9.3448657547329D-02  1.7298875289973D+00
    74  7.3000000000000D-01 -1.4016576746431D-01  1.7446943000430D+00
    75  7.4000000000000D-01 -1.8423122201426D-01  1.7543099476832D+00
    76  7.5000000000000D-01 -2.2546199103045D-01  1.7584063578426D+00
    77  7.6000000000000D-01 -2.6369184882963D-01  1.7566908376898D+00
    78  7.7000000000000D-01 -2.9877334313968D-01  1.7489120664874D+00
    79  7.8000000000000D-01 -3.3057961316277D-01  1.7348656456042D+00
    80  7.9000000000000D-01 -3.5900602595919D-01  1.7143991465322D+00
    81  8.0000000000000D-01 -3.8397160237512D-01  1.6874165618807D+00
    82  8.1000000000000D-01 -4.0542020627835D-01  1.6538820721292D+00
    83  8.2000000000000D-01 -4.2332147387531D-01  1.6138230502764D+00
    84  8.3000000000000D-01 -4.3767146332068D-01  1.5673322373223D+00
    85  8.4000000000000D-01 -4.4849300864602D-01  1.5145690335762D+00
    86  8.5000000000000D-01 -4.5583576617170D-01  1.4557598639377D+00
    87  8.6000000000000D-01 -4.5977594596332D-01  1.3911975893336D+00
    88  8.7000000000000D-01 -4.6041572548350D-01  1.3212399512002D+00
    89  8.8000000000000D-01 -4.5788234730021D-01  1.2463070510406D+00
    90  8.9000000000000D-01 -4.5232690746989D-01  1.1668778824236D+00
    91  9.0000000000000D-01 -4.4392284594132D-01  1.0834859480712D+00
    92  9.1000000000000D-01 -4.3286415494832D-01  9.9671400965767D-01
    93  9.2000000000000D-01 -4.1936332579926D-01  9.0718803236623D-01
    94  9.3000000000000D-01 -4.0364905865746D-01  8.1557039987890D-01
    95  9.4000000000000D-01 -3.8596376376551D-01  7.2255248807675D-01
    96  9.5000000000000D-01 -3.6656088603522D-01  6.2884669708597D-01
    97  9.6000000000000D-01 -3.4570208793985D-01  5.3517805121631D-01
    98  9.7000000000000D-01 -3.2365432816634D-01  4.4227548466814D-01
    99  9.8000000000000D-01 -3.0068687541212D-01  3.5086293729498D-01
   100  9.9000000000000D-01 -2.7706829812588D-01  2.6165038947878D-01
   101  1.0000000000000D+00 -2.5306347171186D-01  1.7532496769329D-01
   102  1.0100000000000D+00 -2.2893064483886D-01  9.2542252914975D-02
   103  1.0200000000000D+00 -2.0491860596571D-01  1.3917922512370D-02
   104  1.0300000000000D+00 -1.8126399003441D-01 -5.9980147330584D-02
   105  1.0400000000000D+00 -1.5818876335280D-01 -1.2863919767279D-01
   106  1.0500000000000D+00 -1.3589792255809D-01 -1.9160820711917D-01
   107  1.0600000000000D+00 -1.1457744020689D-01 -2.4850371279712D-01
   108  1.0700000000000D+00 -9.4392486231584D-02 -2.9901473901607D-01
   109  1.0800000000000D+00 -7.5485950460693D-02 -3.4290675358159D-01
   110  1.0900000000000D+00 -5.7977286595233D-02 -3.8002458718593D-01
   111  1.1000000000000D+00 -4.1961694138566D-02 -4.1029426382903D-01
   112  1.1100000000000D+00 -2.7509648540697D-02 -4.3372371032382D-01
   113  1.1200000000000D+00 -1.4666785347486D-02 -4.5040232736849D-01
   114  1.1300000000000D+00 -3.4541380667266D-03 -4.6049942429640D-01
   115  1.1400000000000D+00  6.1312751327901D-03 -4.6426153446550D-01
   116  1.1500000000000D+00  1.4115527032573D-02 -4.6200864848785D-01
   117  1.1600000000000D+00  2.0546535421306D-02 -4.5412941865308D-01
   118  1.1700000000000D+00  2.5492517173405D-02 -4.4107540550964D-01
   119  1.1800000000000D+00  2.9040167493694D-02 -4.2335444911870D-01
   120  1.1900000000000D+00  3.1292595587407D-02 -4.0152326729754D-01
   121  1.2000000000000D+00  3.2367051078805D-02 -3.7617939309433D-01
   122  1.2100000000000D+00  3.2392478951101D-02 -3.4795257490362D-01
   123  1.2200000000000D+00  3.1506943636967D-02 -3.1749577188528D-01
   124  1.2300000000000D+00  2.9854965991010D-02 -2.8547588738695D-01
   125  1.2400000000000D+00  2.7584817445421D-02 -2.5256438489113D-01
   126  1.2500000000000D+00  2.4845817139885D-02 -2.1942793583860D-01
   127  1.2600000000000D+00  2.1785678528145D-02 -1.8671925093036D-01
   128  1.2700000000000D+00  1.8547952840201D-02 -1.5506825040698D-01
   129  1.2800000000000D+00  1.5269597012060D-02 -1.2507365648120D-01
   130  1.2900000000000D+00  1.2078774166624D-02 -9.7295384171612D-02
   131  1.3000000000000D+00  9.0926574733561D-03 -7.2246890105625D-02
   132  1.3100000000000D+00  6.4162200507686D-03 -5.0391013569823D-02
   133  1.3200000000000D+00  4.1414962417646D-03 -3.2143856358453D-02
   134  1.3300000000000D+00  2.3282190542210D-03 -1.7748962657111D-02
   135  1.3400000000000D+00  1.0481478107774D-03 -7.6003263308789D-03
   136  1.3500000000000D+00  3.6800400128985D-04 -2.1082529238087D-03
   137  1.3600000000000D+00  1.0709342419450D-04 -1.4958254707959D-04
   138  1.3700000000000D+00  1.4957308417489D-05  8.4448038192314D-05
   139  1.3800000000000D+00 -3.6721964188817D-06 -4.9616550535386D-05
   140  1.3900000000000D+00 -3.6497700629052D-07 -9.8721779276796D-06
   141  1.4000000000000D+00  1.2087717017399D-06  8.2819850242586D-06
   142  1.4100000000000D+00 -1.8101042057130D-07  4.2870276286002D-07
   143  1.4200000000000D+00 -2.8151644524295D-07  6.6673994505550D-07
   144  1.4300000000000D+00  0.0000000000000D+00  0.0000000000000D+00
   145  1.4400000000000D+00  0.0000000000000D+00  0.0000000000000D+00
   146  1.4500000000000D+00  0.0000000000000D+00  0.0000000000000D+00
   147  1.4600000000000D+00  0.0000000000000D+00  0.0000000000000D+00
   148  1.4700000000000D+00  0.0000000000000D+00  0.0000000000000D+00
   149  1.4800000000000D+00  0.0000000000000D+00  0.0000000000000D+00
   150  1.4900000000000D+00  0.0000000000000D+00  0.0000000000000D+00
   151  1.5000000000000D+00  0.0000000000000D+00  0.0000000000000D+00
   152  1.5100000000000D+00  0.0000000000000D+00  0.0000000000000D+00
   153  1.5200000000000D+00  0.0000000000000D+00  0.0000000000000D+00
   154  1.5300000000000D+00  0.0000000000000D+00  0.0000000000000D+00
   155  1.5400000000000D+00  0.0000000000000D+00  0.0000000000000D+00
   156  1.5500000000000D+00  0.0000000000000D+00  0.0000000000000D+00
   157  1.5600000000000D+00  0.0000000000000D+00  0.0000000000000D+00
   158  1.5700000000000D+00  0.0000000000000D+00  0.0000000000000D+00
   159  1.5800000000000D+00  0.0000000000000D+00  0.0000000000000D+00
   160  1.5900000000000D+00  0.0000000000000D+00  0.0000000000000D+00
   161  1.6000000000000D+00  0.0000000000000D+00  0.0000000000000D+00
   162  1.6100000000000D+00  0.0000000000000D+00  0.0000000000000D+00
   163  1.6200000000000D+00  0.0000000000000D+00  0.0000000000000D+00
   164  1.6300000000000D+00  0.0000000000000D+00  0.0000000000000D+00
   165  1.6400000000000D+00  0.0000000000000D+00  0.0000000000000D+00
   166  1.6500000000000D+00  0.0000000000000D+00  0.0000000000000D+00
   167  1.6600000000000D+00  0.0000000000000D+00  0.0000000000000D+00
   168  1.6700000000000D+00  0.0000000000000D+00  0.0000000000000D+00
   169  1.6800000000000D+00  0.0000000000000D+00  0.0000000000000D+00
   170  1.6900000000000D+00  0.0000000000000D+00  0.0000000000000D+00
   171  1.7000000000000D+00  0.0000000000000D+00  0.0000000000000D+00
   172  1.7100000000000D+00  0.0000000000000D+00  0.0000000000000D+00
   173  1.7200000000000D+00  0.0000000000000D+00  0.0000000000000D+00
   174  1.7300000000000D+00  0.0000000000000D+00  0.0000000000000D+00
   175  1.7400000000000D+00  0.0000000000000D+00  0.0000000000000D+00
   176  1.7500000000000D+00  0.0000000000000D+00  0.0000000000000D+00
   177  1.7600000000000D+00  0.0000000000000D+00  0.0000000000000D+00
   178  1.7700000000000D+00  0.0000000000000D+00  0.0000000000000D+00
   179  1.7800000000000D+00  0.0000000000000D+00  0.0000000000000D+00
   180  1.7900000000000D+00  0.0000000000000D+00  0.0000000000000D+00
   181  1.8000000000000D+00  0.0000000000000D+00  0.0000000000000D+00
   182  1.8100000000000D+00  0.0000000000000D+00  0.0000000000000D+00
   183  1.8200000000000D+00  0.0000000000000D+00  0.0000000000000D+00
   184  1.8300000000000D+00  0.0000000000000D+00  0.0000000000000D+00
   185  1.8400000000000D+00  0.0000000000000D+00  0.0000000000000D+00
   186  1.8500000000000D+00  0.0000000000000D+00  0.0000000000000D+00
   187  1.8600000000000D+00  0.0000000000000D+00  0.0000000000000D+00
   188  1.8700000000000D+00  0.0000000000000D+00  0.0000000000000D+00
   189  1.8800000000000D+00  0.0000000000000D+00  0.0000000000000D+00
   190  1.8900000000000D+00  0.0000000000000D+00  0.0000000000000D+00
   191  1.9000000000000D+00  0.0000000000000D+00  0.0000000000000D+00
   192  1.9100000000000D+00  0.0000000000000D+00  0.0000000000000D+00
   193  1.9200000000000D+00  0.0000000000000D+00  0.0000000000000D+00
   194  1.9300000000000D+00  0.0000000000000D+00  0.0000000000000D+00
   195  1.9400000000000D+00  0.0000000000000D+00  0.0000000000000D+00
   196  1.9500000000000D+00  0.0000000000000D+00  0.0000000000000D+00
   197  1.9600000000000D+00  0.0000000000000D+00  0.0000000000000D+00
   198  1.9700000000000D+00  0.0000000000000D+00  0.0000000000000D+00
   199  1.9800000000000D+00  0.0000000000000D+00  0.0000000000000D+00
   200  1.9900000000000D+00  0.0000000000000D+00  0.0000000000000D+00
   201  2.0000000000000D+00  0.0000000000000D+00  0.0000000000000D+00
   202  2.0100000000000D+00  0.0000000000000D+00  0.0000000000000D+00
   203  2.0200000000000D+00  0.0000000000000D+00  0.0000000000000D+00
   204  2.0300000000000D+00  0.0000000000000D+00  0.0000000000000D+00
   205  2.0400000000000D+00  0.0000000000000D+00  0.0000000000000D+00
   206  2.0500000000000D+00  0.0000000000000D+00  0.0000000000000D+00
   207  2.0600000000000D+00  0.0000000000000D+00  0.0000000000000D+00
   208  2.0700000000000D+00  0.0000000000000D+00  0.0000000000000D+00
   209  2.0800000000000D+00  0.0000000000000D+00  0.0000000000000D+00
   210  2.0900000000000D+00  0.0000000000000D+00  0.0000000000000D+00
   211  2.1000000000000D+00  0.0000000000000D+00  0.0000000000000D+00
   212  2.1100000000000D+00  0.0000000000000D+00  0.0000000000000D+00
   213  2.1200000000000D+00  0.0000000000000D+00  0.0000000000000D+00
   214  2.1300000000000D+00  0.0000000000000D+00  0.0000000000000D+00
   215  2.1400000000000D+00  0.0000000000000D+00  0.0000000000000D+00
   216  2.1500000000000D+00  0.0000000000000D+00  0.0000000000000D+00
   217  2.1600000000000D+00  0.0000000000000D+00  0.0000000000000D+00
   218  2.1700000000000D+00  0.0000000000000D+00  0.0000000000000D+00
   219  2.1800000000000D+00  0.0000000000000D+00  0.0000000000000D+00
   220  2.1900000000000D+00  0.0000000000000D+00  0.0000000000000D+00
   221  2.2000000000000D+00  0.0000000000000D+00  0.0000000000000D+00
   222  2.2100000000000D+00  0.0000000000000D+00  0.0000000000000D+00
   223  2.2200000000000D+00  0.0000000000000D+00  0.0000000000000D+00
   224  2.2300000000000D+00  0.0000000000000D+00  0.0000000000000D+00
   225  2.2400000000000D+00  0.0000000000000D+00  0.0000000000000D+00
   226  2.2500000000000D+00  0.0000000000000D+00  0.0000000000000D+00
   227  2.2600000000000D+00  0.0000000000000D+00  0.0000000000000D+00
   228  2.2700000000000D+00  0.0000000000000D+00  0.0000000000000D+00
   229  2.2800000000000D+00  0.0000000000000D+00  0.0000000000000D+00
   230  2.2900000000000D+00  0.0000000000000D+00  0.0000000000000D+00
   231  2.3000000000000D+00  0.0000000000000D+00  0.0000000000000D+00
   232  2.3100000000000D+00  0.0000000000000D+00  0.0000000000000D+00
   233  2.3200000000000D+00  0.0000000000000D+00  0.0000000000000D+00
   234  2.3300000000000D+00  0.0000000000000D+00  0.0000000000000D+00
   235  2.3400000000000D+00  0.0000000000000D+00  0.0000000000000D+00
   236  2.3500000000000D+00  0.0000000000000D+00  0.0000000000000D+00
   237  2.3600000000000D+00  0.0000000000000D+00  0.0000000000000D+00
   238  2.3700000000000D+00  0.0000000000000D+00  0.0000000000000D+00
   239  2.3800000000000D+00  0.0000000000000D+00  0.0000000000000D+00
   240  2.3900000000000D+00  0.0000000000000D+00  0.0000000000000D+00
   241  2.4000000000000D+00  0.0000000000000D+00  0.0000000000000D+00
   242  2.4100000000000D+00  0.0000000000000D+00  0.0000000000000D+00
   243  2.4200000000000D+00  0.0000000000000D+00  0.0000000000000D+00
   244  2.4300000000000D+00  0.0000000000000D+00  0.0000000000000D+00
   245  2.4400000000000D+00  0.0000000000000D+00  0.0000000000000D+00
   246  2.4500000000000D+00  0.0000000000000D+00  0.0000000000000D+00
   247  2.4600000000000D+00  0.0000000000000D+00  0.0000000000000D+00
   248  2.4700000000000D+00  0.0000000000000D+00  0.0000000000000D+00
   249  2.4800000000000D+00  0.0000000000000D+00  0.0000000000000D+00
   250  2.4900000000000D+00  0.0000000000000D+00  0.0000000000000D+00
   251  2.5000000000000D+00  0.0000000000000D+00  0.0000000000000D+00
   252  2.5100000000000D+00  0.0000000000000D+00  0.0000000000000D+00
   253  2.5200000000000D+00  0.0000000000000D+00  0.0000000000000D+00
   254  2.5300000000000D+00  0.0000000000000D+00  0.0000000000000D+00
   255  2.5400000000000D+00  0.0000000000000D+00  0.0000000000000D+00
   256  2.5500000000000D+00  0.0000000000000D+00  0.0000000000000D+00
   257  2.5600000000000D+00  0.0000000000000D+00  0.0000000000000D+00
   258  2.5700000000000D+00  0.0000000000000D+00  0.0000000000000D+00
   259  2.5800000000000D+00  0.0000000000000D+00  0.0000000000000D+00
   260  2.5900000000000D+00  0.0000000000000D+00  0.0000000000000D+00
   261  2.6000000000000D+00  0.0000000000000D+00  0.0000000000000D+00
   262  2.6100000000000D+00  0.0000000000000D+00  0.0000000000000D+00
   263  2.6200000000000D+00  0.0000000000000D+00  0.0000000000000D+00
   264  2.6300000000000D+00  0.0000000000000D+00  0.0000000000000D+00
   265  2.6400000000000D+00  0.0000000000000D+00  0.0000000000000D+00
   266  2.6500000000000D+00  0.0000000000000D+00  0.0000000000000D+00
   267  2.6600000000000D+00  0.0000000000000D+00  0.0000000000000D+00
   268  2.6700000000000D+00  0.0000000000000D+00  0.0000000000000D+00
   269  2.6800000000000D+00  0.0000000000000D+00  0.0000000000000D+00
   270  2.6900000000000D+00  0.0000000000000D+00  0.0000000000000D+00
   271  2.7000000000000D+00  0.0000000000000D+00  0.0000000000000D+00
   272  2.7100000000000D+00  0.0000000000000D+00  0.0000000000000D+00
   273  2.7200000000000D+00  0.0000000000000D+00  0.0000000000000D+00
   274  2.7300000000000D+00  0.0000000000000D+00  0.0000000000000D+00
   275  2.7400000000000D+00  0.0000000000000D+00  0.0000000000000D+00
   276  2.7500000000000D+00  0.0000000000000D+00  0.0000000000000D+00
   277  2.7600000000000D+00  0.0000000000000D+00  0.0000000000000D+00
   278  2.7700000000000D+00  0.0000000000000D+00  0.0000000000000D+00
   279  2.7800000000000D+00  0.0000000000000D+00  0.0000000000000D+00
   280  2.7900000000000D+00  0.0000000000000D+00  0.0000000000000D+00
   281  2.8000000000000D+00  0.0000000000000D+00  0.0000000000000D+00
   282  2.8100000000000D+00  0.0000000000000D+00  0.0000000000000D+00
   283  2.8200000000000D+00  0.0000000000000D+00  0.0000000000000D+00
   284  2.8300000000000D+00  0.0000000000000D+00  0.0000000000000D+00
   285  2.8400000000000D+00  0.0000000000000D+00  0.0000000000000D+00
   286  2.8500000000000D+00  0.0000000000000D+00  0.0000000000000D+00
   287  2.8600000000000D+00  0.0000000000000D+00  0.0000000000000D+00
   288  2.8700000000000D+00  0.0000000000000D+00  0.0000000000000D+00
   289  2.8800000000000D+00  0.0000000000000D+00  0.0000000000000D+00
   290  2.8900000000000D+00  0.0000000000000D+00  0.0000000000000D+00
   291  2.9000000000000D+00  0.0000000000000D+00  0.0000000000000D+00
   292  2.9100000000000D+00  0.0000000000000D+00  0.0000000000000D+00
   293  2.9200000000000D+00  0.0000000000000D+00  0.0000000000000D+00
   294  2.9300000000000D+00  0.0000000000000D+00  0.0000000000000D+00
   295  2.9400000000000D+00  0.0000000000000D+00  0.0000000000000D+00
   296  2.9500000000000D+00  0.0000000000000D+00  0.0000000000000D+00
   297  2.9600000000000D+00  0.0000000000000D+00  0.0000000000000D+00
   298  2.9700000000000D+00  0.0000000000000D+00  0.0000000000000D+00
   299  2.9800000000000D+00  0.0000000000000D+00  0.0000000000000D+00
   300  2.9900000000000D+00  0.0000000000000D+00  0.0000000000000D+00
   301  3.0000000000000D+00  0.0000000000000D+00  0.0000000000000D+00
   302  3.0100000000000D+00  0.0000000000000D+00  0.0000000000000D+00
   303  3.0200000000000D+00  0.0000000000000D+00  0.0000000000000D+00
   304  3.0300000000000D+00  0.0000000000000D+00  0.0000000000000D+00
   305  3.0400000000000D+00  0.0000000000000D+00  0.0000000000000D+00
   306  3.0500000000000D+00  0.0000000000000D+00  0.0000000000000D+00
   307  3.0600000000000D+00  0.0000000000000D+00  0.0000000000000D+00
   308  3.0700000000000D+00  0.0000000000000D+00  0.0000000000000D+00
   309  3.0800000000000D+00  0.0000000000000D+00  0.0000000000000D+00
   310  3.0900000000000D+00  0.0000000000000D+00  0.0000000000000D+00
   311  3.1000000000000D+00  0.0000000000000D+00  0.0000000000000D+00
   312  3.1100000000000D+00  0.0000000000000D+00  0.0000000000000D+00
   313  3.1200000000000D+00  0.0000000000000D+00  0.0000000000000D+00
   314  3.1300000000000D+00  0.0000000000000D+00  0.0000000000000D+00
   315  3.1400000000000D+00  0.0000000000000D+00  0.0000000000000D+00
   316  3.1500000000000D+00  0.0000000000000D+00  0.0000000000000D+00
   317  3.1600000000000D+00  0.0000000000000D+00  0.0000000000000D+00
   318  3.1700000000000D+00  0.0000000000000D+00  0.0000000000000D+00
   319  3.1800000000000D+00  0.0000000000000D+00  0.0000000000000D+00
   320  3.1900000000000D+00  0.0000000000000D+00  0.0000000000000D+00
   321  3.2000000000000D+00  0.0000000000000D+00  0.0000000000000D+00
   322  3.2100000000000D+00  0.0000000000000D+00  0.0000000000000D+00
   323  3.2200000000000D+00  0.0000000000000D+00  0.0000000000000D+00
   324  3.2300000000000D+00  0.0000000000000D+00  0.0000000000000D+00
   325  3.2400000000000D+00  0.0000000000000D+00  0.0000000000000D+00
   326  3.2500000000000D+00  0.0000000000000D+00  0.0000000000000D+00
   327  3.2600000000000D+00  0.0000000000000D+00  0.0000000000000D+00
   328  3.2700000000000D+00  0.0000000000000D+00  0.0000000000000D+00
   329  3.2800000000000D+00  0.0000000000000D+00  0.0000000000000D+00
   330  3.2900000000000D+00  0.0000000000000D+00  0.0000000000000D+00
   331  3.3000000000000D+00  0.0000000000000D+00  0.0000000000000D+00
   332  3.3100000000000D+00  0.0000000000000D+00  0.0000000000000D+00
   333  3.3200000000000D+00  0.0000000000000D+00  0.0000000000000D+00
   334  3.3300000000000D+00  0.0000000000000D+00  0.0000000000000D+00
   335  3.3400000000000D+00  0.0000000000000D+00  0.0000000000000D+00
   336  3.3500000000000D+00  0.0000000000000D+00  0.0000000000000D+00
   337  3.3600000000000D+00  0.0000000000000D+00  0.0000000000000D+00
   338  3.3700000000000D+00  0.0000000000000D+00  0.0000000000000D+00
   339  3.3800000000000D+00  0.0000000000000D+00  0.0000000000000D+00
   340  3.3900000000000D+00  0.0000000000000D+00  0.0000000000000D+00
   341  3.4000000000000D+00  0.0000000000000D+00  0.0000000000000D+00
   342  3.4100000000000D+00  0.0000000000000D+00  0.0000000000000D+00
   343  3.4200000000000D+00  0.0000000000000D+00  0.0000000000000D+00
   344  3.4300000000000D+00  0.0000000000000D+00  0.0000000000000D+00
   345  3.4400000000000D+00  0.0000000000000D+00  0.0000000000000D+00
   346  3.4500000000000D+00  0.0000000000000D+00  0.0000000000000D+00
   347  3.4600000000000D+00  0.0000000000000D+00  0.0000000000000D+00
   348  3.4700000000000D+00  0.0000000000000D+00  0.0000000000000D+00
   349  3.4800000000000D+00  0.0000000000000D+00  0.0000000000000D+00
   350  3.4900000000000D+00  0.0000000000000D+00  0.0000000000000D+00
   351  3.5000000000000D+00  0.0000000000000D+00  0.0000000000000D+00
   352  3.5100000000000D+00  0.0000000000000D+00  0.0000000000000D+00
   353  3.5200000000000D+00  0.0000000000000D+00  0.0000000000000D+00
   354  3.5300000000000D+00  0.0000000000000D+00  0.0000000000000D+00
   355  3.5400000000000D+00  0.0000000000000D+00  0.0000000000000D+00
   356  3.5500000000000D+00  0.0000000000000D+00  0.0000000000000D+00
   357  3.5600000000000D+00  0.0000000000000D+00  0.0000000000000D+00
   358  3.5700000000000D+00  0.0000000000000D+00  0.0000000000000D+00
   359  3.5800000000000D+00  0.0000000000000D+00  0.0000000000000D+00
   360  3.5900000000000D+00  0.0000000000000D+00  0.0000000000000D+00
   361  3.6000000000000D+00  0.0000000000000D+00  0.0000000000000D+00
   362  3.6100000000000D+00  0.0000000000000D+00  0.0000000000000D+00
   363  3.6200000000000D+00  0.0000000000000D+00  0.0000000000000D+00
   364  3.6300000000000D+00  0.0000000000000D+00  0.0000000000000D+00
   365  3.6400000000000D+00  0.0000000000000D+00  0.0000000000000D+00
   366  3.6500000000000D+00  0.0000000000000D+00  0.0000000000000D+00
   367  3.6600000000000D+00  0.0000000000000D+00  0.0000000000000D+00
   368  3.6700000000000D+00  0.0000000000000D+00  0.0000000000000D+00
   369  3.6800000000000D+00  0.0000000000000D+00  0.0000000000000D+00
   370  3.6900000000000D+00  0.0000000000000D+00  0.0000000000000D+00
   371  3.7000000000000D+00  0.0000000000000D+00  0.0000000000000D+00
   372  3.7100000000000D+00  0.0000000000000D+00  0.0000000000000D+00
   373  3.7200000000000D+00  0.0000000000000D+00  0.0000000000000D+00
   374  3.7300000000000D+00  0.0000000000000D+00  0.0000000000000D+00
   375  3.7400000000000D+00  0.0000000000000D+00  0.0000000000000D+00
   376  3.7500000000000D+00  0.0000000000000D+00  0.0000000000000D+00
   377  3.7600000000000D+00  0.0000000000000D+00  0.0000000000000D+00
   378  3.7700000000000D+00  0.0000000000000D+00  0.0000000000000D+00
   379  3.7800000000000D+00  0.0000000000000D+00  0.0000000000000D+00
   380  3.7900000000000D+00  0.0000000000000D+00  0.0000000000000D+00
   381  3.8000000000000D+00  0.0000000000000D+00  0.0000000000000D+00
   382  3.8100000000000D+00  0.0000000000000D+00  0.0000000000000D+00
   383  3.8200000000000D+00  0.0000000000000D+00  0.0000000000000D+00
   384  3.8300000000000D+00  0.0000000000000D+00  0.0000000000000D+00
   385  3.8400000000000D+00  0.0000000000000D+00  0.0000000000000D+00
   386  3.8500000000000D+00  0.0000000000000D+00  0.0000000000000D+00
   387  3.8600000000000D+00  0.0000000000000D+00  0.0000000000000D+00
   388  3.8700000000000D+00  0.0000000000000D+00  0.0000000000000D+00
   389  3.8800000000000D+00  0.0000000000000D+00  0.0000000000000D+00
   390  3.8900000000000D+00  0.0000000000000D+00  0.0000000000000D+00
   391  3.9000000000000D+00  0.0000000000000D+00  0.0000000000000D+00
   392  3.9100000000000D+00  0.0000000000000D+00  0.0000000000000D+00
   393  3.9200000000000D+00  0.0000000000000D+00  0.0000000000000D+00
   394  3.9300000000000D+00  0.0000000000000D+00  0.0000000000000D+00
   395  3.9400000000000D+00  0.0000000000000D+00  0.0000000000000D+00
   396  3.9500000000000D+00  0.0000000000000D+00  0.0000000000000D+00
   397  3.9600000000000D+00  0.0000000000000D+00  0.0000000000000D+00
   398  3.9700000000000D+00  0.0000000000000D+00  0.0000000000000D+00
   399  3.9800000000000D+00  0.0000000000000D+00  0.0000000000000D+00
   400  3.9900000000000D+00  0.0000000000000D+00  0.0000000000000D+00
   401  4.0000000000000D+00  0.0000000000000D+00  0.0000000000000D+00
   402  4.0100000000000D+00  0.0000000000000D+00  0.0000000000000D+00
   403  4.0200000000000D+00  0.0000000000000D+00  0.0000000000000D+00
   404  4.0300000000000D+00  0.0000000000000D+00  0.0000000000000D+00
   405  4.0400000000000D+00  0.0000000000000D+00  0.0000000000000D+00
   406  4.0500000000000D+00  0.0000000000000D+00  0.0000000000000D+00
   407  4.0600000000000D+00  0.0000000000000D+00  0.0000000000000D+00
   408  4.0700000000000D+00  0.0000000000000D+00  0.0000000000000D+00
   409  4.0800000000000D+00  0.0000000000000D+00  0.0000000000000D+00
   410  4.0900000000000D+00  0.0000000000000D+00  0.0000000000000D+00
   411  4.1000000000000D+00  0.0000000000000D+00  0.0000000000000D+00
   412  4.1100000000000D+00  0.0000000000000D+00  0.0000000000000D+00
   413  4.1200000000000D+00  0.0000000000000D+00  0.0000000000000D+00
   414  4.1300000000000D+00  0.0000000000000D+00  0.0000000000000D+00
   415  4.1400000000000D+00  0.0000000000000D+00  0.0000000000000D+00
   416  4.1500000000000D+00  0.0000000000000D+00  0.0000000000000D+00
   417  4.1600000000000D+00  0.0000000000000D+00  0.0000000000000D+00
   418  4.1700000000000D+00  0.0000000000000D+00  0.0000000000000D+00
   419  4.1800000000000D+00  0.0000000000000D+00  0.0000000000000D+00
   420  4.1900000000000D+00  0.0000000000000D+00  0.0000000000000D+00
   421  4.2000000000000D+00  0.0000000000000D+00  0.0000000000000D+00
   422  4.2100000000000D+00  0.0000000000000D+00  0.0000000000000D+00