Te    ONCVPSP-3.3.0  r_core=   2.26547   1.91704   1.80604
     52.0000     16.0000      220117    zatom,zion,pspd
     8      11   2     4   600     0    pspcod,pspxc,lmax,lloc,mmax,r2well
  5.99000000  0.00000000  0.00000000    rchrg fchrg qchrg
     2     2     2     0     0    nproj
     1     1           extension_switch
   0                         6.3771103902354D+00  7.8667403065525D-01
     1  0.0000000000000D+00 -4.8194503943222D-12  2.6518107154594D-11
     2  1.0000000000000D-02  1.9616859055226D-02 -9.8284822395370D-03
     3  2.0000000000000D-02  3.9233356354514D-02 -1.9631921043413D-02
     4  3.0000000000000D-02  5.8849129785483D-02 -2.9385427979433D-02
     5  4.0000000000000D-02  7.8463816377964D-02 -3.9064423519842D-02
     6  5.0000000000000D-02  9.8077051514055D-02 -4.8644788744049D-02
     7  6.0000000000000D-02  1.1768846770836D-01 -5.8103013760727D-02
     8  7.0000000000000D-02  1.3729769282078D-01 -6.7416341786974D-02
     9  8.0000000000000D-02  1.5690434756911D-01 -7.6562907848750D-02
    10  9.0000000000000D-02  1.7650804221464D-01 -8.5521871099709D-02
    11  1.0000000000000D-01  1.9610837230107D-01 -9.4273539794700D-02
    12  1.1000000000000D-01  2.1570491333519D-01 -1.0279948799934D-01
    13  1.2000000000000D-01  2.3529721430720D-01 -1.1108266316793D-01
    14  1.3000000000000D-01  2.5488478995832D-01 -1.1910748377845D-01
    15  1.4000000000000D-01  2.7446711171503D-01 -1.2685992627489D-01
    16  1.5000000000000D-01  2.9404359722078D-01 -1.3432760063381D-01
    17  1.6000000000000D-01  3.1361359840905D-01 -1.4149981394288D-01
    18  1.7000000000000D-01  3.3317638807511D-01 -1.4836762145450D-01
    19  1.8000000000000D-01  3.5273114491788D-01 -1.5492386465634D-01
    20  1.9000000000000D-01  3.7227693703802D-01 -1.6116319598317D-01
    21  2.0000000000000D-01  3.9181270389364D-01 -1.6708208987928D-01
    22  2.1000000000000D-01  4.1133723673030D-01 -1.7267884000835D-01
    23  2.2000000000000D-01  4.3084915751804D-01 -1.7795354249747D-01
    24  2.3000000000000D-01  4.5034689644405D-01 -1.8290806519244D-01
    25  2.4000000000000D-01  4.6982866802556D-01 -1.8754600299395D-01
    26  2.5000000000000D-01  4.8929244592379D-01 -1.9187261943607D-01
    27  2.6000000000000D-01  5.0873593655556D-01 -1.9589477476116D-01
    28  2.7000000000000D-01  5.2815655161486D-01 -1.9962084083644D-01
    29  2.8000000000000D-01  5.4755137963217D-01 -2.0306060334836D-01
    30  2.9000000000000D-01  5.6691715671401D-01 -2.0622515179926D-01
    31  3.0000000000000D-01  5.8625023661973D-01 -2.0912675791767D-01
    32  3.1000000000000D-01  6.0554656034632D-01 -2.1177874317701D-01
    33  3.2000000000000D-01  6.2480162540472D-01 -2.1419533619837D-01
    34  3.3000000000000D-01  6.4401045498349D-01 -2.1639152088950D-01
    35  3.4000000000000D-01  6.6316756720675D-01 -2.1838287624476D-01
    36  3.5000000000000D-01  6.8226694470348D-01 -2.2018540879861D-01
    37  3.6000000000000D-01  7.0130200471414D-01 -2.2181537878764D-01
    38  3.7000000000000D-01  7.2026556996850D-01 -2.2328912113343D-01
    39  3.8000000000000D-01  7.3914984057504D-01 -2.2462286240915D-01
    40  3.9000000000000D-01  7.5794636716724D-01 -2.2583253499765D-01
    41  4.0000000000000D-01  7.7664602555607D-01 -2.2693358968658D-01
    42  4.1000000000000D-01  7.9523899313978D-01 -2.2794080797665D-01
    43  4.2000000000000D-01  8.1371472732322D-01 -2.2886811540288D-01
    44  4.3000000000000D-01  8.3206194619752D-01 -2.2972839718426D-01
    45  4.4000000000000D-01  8.5026861172866D-01 -2.3053331752542D-01
    46  4.5000000000000D-01  8.6832191569917D-01 -2.3129314389390D-01
    47  4.6000000000000D-01  8.8620826864125D-01 -2.3201657758865D-01
    48  4.7000000000000D-01  9.0391329199198D-01 -2.3271059189927D-01
    49  4.8000000000000D-01  9.2142181369218D-01 -2.3338027913082D-01
    50  4.9000000000000D-01  9.3871786743918D-01 -2.3402870773685D-01
    51  5.0000000000000D-01  9.5578469579158D-01 -2.3465679076243D-01
    52  5.1000000000000D-01  9.7260475730930D-01 -2.3526316674995D-01
    53  5.2000000000000D-01  9.8915973789699D-01 -2.3584409420437D-01
    54  5.3000000000000D-01  1.0054305665008D+00 -2.3639336064982D-01
    55  5.4000000000000D-01  1.0213974352904D+00 -2.3690220723816D-01
    56  5.5000000000000D-01  1.0370398244370D+00 -2.3735926979090D-01
    57  5.6000000000000D-01  1.0523365315773D+00 -2.3775053707066D-01
    58  5.7000000000000D-01  1.0672657060307D+00 -2.3805932698587D-01
    59  5.8000000000000D-01  1.0818048878108D+00 -2.3826628133519D-01
    60  5.9000000000000D-01  1.0959310514516D+00 -2.3834937959381D-01
    61  6.0000000000000D-01  1.1096206546379D+00 -2.3828397213606D-01
    62  6.1000000000000D-01  1.1228496916068D+00 -2.3804283317590D-01
    63  6.2000000000000D-01  1.1355937512574D+00 -2.3759623358987D-01
    64  6.3000000000000D-01  1.1478280798789D+00 -2.3691203366757D-01
    65  6.4000000000000D-01  1.1595276483796D+00 -2.3595579571267D-01
    66  6.5000000000000D-01  1.1706672238687D+00 -2.3469091629266D-01
    67  6.6000000000000D-01  1.1812214454183D+00 -2.3307877781069D-01
    68  6.7000000000000D-01  1.1911649038003D+00 -2.3107891894726D-01
    69  6.8000000000000D-01  1.2004722249675D+00 -2.2864922339365D-01
    70  6.9000000000000D-01  1.2091181570211D+00 -2.2574612617494D-01
    71  7.0000000000000D-01  1.2170776603770D+00 -2.2232483673827D-01
    72  7.1000000000000D-01  1.2243260008206D+00 -2.1833957786161D-01
    73  7.2000000000000D-01  1.2308388451118D+00 -2.1374383932244D-01
    74  7.3000000000000D-01  1.2365923587802D+00 -2.0849064515276D-01
    75  7.4000000000000D-01  1.2415633057251D+00 -2.0253283320007D-01
    76  7.5000000000000D-01  1.2457291492170D+00 -1.9582334561160D-01
    77  7.6000000000000D-01  1.2490681538749D+00 -1.8831552876409D-01
    78  7.7000000000000D-01  1.2515594881761D+00 -1.7996344107218D-01
    79  7.8000000000000D-01  1.2531833270421D+00 -1.7072216702854D-01
    80  7.9000000000000D-01  1.2539209540261D+00 -1.6054813575568D-01
    81  8.0000000000000D-01  1.2537548626195D+00 -1.4939944228602D-01
    82  8.1000000000000D-01  1.2526688561841D+00 -1.3723616973245D-01
    83  8.2000000000000D-01  1.2506481460082D+00 -1.2402071046756D-01
    84  8.3000000000000D-01  1.2476794469848D+00 -1.0971808439549D-01
    85  8.4000000000000D-01  1.2437510704022D+00 -9.4296252377058D-02
    86  8.5000000000000D-01  1.2388530133447D+00 -7.7726422857291D-02
    87  8.6000000000000D-01  1.2329770441992D+00 -5.9983349742931D-02
    88  8.7000000000000D-01  1.2261167837729D+00 -4.1045619588942D-02
    89  8.8000000000000D-01  1.2182677815362D+00 -2.0895926175053D-02
    90  8.9000000000000D-01  1.2094275865165D+00  4.7866941213368D-04
    91  9.0000000000000D-01  1.1995958123820D+00  2.3086495029900D-02
    92  9.1000000000000D-01  1.1887741962757D+00  4.6931041843976D-02
    93  9.2000000000000D-01  1.1769666509765D+00  7.2010758518367D-02
    94  9.3000000000000D-01  1.1641793099889D+00  9.8318866861366D-02
    95  9.4000000000000D-01  1.1504205651892D+00  1.2584320046709D-01
    96  9.5000000000000D-01  1.1357010966824D+00  1.5456606778944D-01
    97  9.6000000000000D-01  1.1200338945564D+00  1.8446414097272D-01
    98  9.7000000000000D-01  1.1034342722514D+00  2.1550837164139D-01
    99  9.8000000000000D-01  1.0859198712988D+00  2.4766393471746D-01
   100  9.9000000000000D-01  1.0675106572198D+00  2.8089020119890D-01
   101  1.0000000000000D+00  1.0482289064141D+00  3.1514074067884D-01
   102  1.0100000000000D+00  1.0280991839070D+00  3.5036335423370D-01
   103  1.0200000000000D+00  1.0071483118700D+00  3.8650013814584D-01
   104  1.0300000000000D+00  9.8540532886695D-01  4.2348757876035D-01
   105  1.0400000000000D+00  9.6290143982870D-01  4.6125667860168D-01
   106  1.0500000000000D+00  9.3966995679848D-01  4.9973311370381D-01
   107  1.0600000000000D+00  9.1574623053954D-01  5.3883742193218D-01
   108  1.0700000000000D+00  8.9116757314185D-01  5.7848522188833D-01
   109  1.0800000000000D+00  8.6597317180986D-01  6.1858746181736D-01
   110  1.0900000000000D+00  8.4020399406110D-01  6.5905069775097D-01
   111  1.1000000000000D+00  8.1390268460850D-01  6.9977739994983D-01
   112  1.1100000000000D+00  7.8711345424491D-01  7.4066628653283D-01
   113  1.1200000000000D+00  7.5988196109414D-01  7.8161268299995D-01
   114  1.1300000000000D+00  7.3225518463340D-01  8.2250890619957D-01
   115  1.1400000000000D+00  7.0428129293506D-01  8.6324467112183D-01
   116  1.1500000000000D+00  6.7600950360973D-01  9.0370751876829D-01
   117  1.1600000000000D+00  6.4748993897935D-01  9.4378326316684D-01
   118  1.1700000000000D+00  6.1877347603830D-01  9.8335645548775D-01
   119  1.1800000000000D+00  5.8991159179359D-01  1.0223108630892D+00
   120  1.1900000000000D+00  5.6095620460570D-01  1.0605299612042D+00
   121  1.2000000000000D+00  5.3195951218301D-01  1.0978974348614D+00
   122  1.2100000000000D+00  5.0297382690499D-01  1.1342976885483D+00
   123  1.2200000000000D+00  4.7405140916438D-01  1.1696163610700D+00
   124  1.2300000000000D+00  4.4524429944883D-01  1.2037408429445D+00
   125  1.2400000000000D+00  4.1660414988826D-01  1.2365607936559D+00
   126  1.2500000000000D+00  3.8818205600525D-01  1.2679686560526D+00
   127  1.2600000000000D+00  3.6002838941829D-01  1.2978601651279D+00
   128  1.2700000000000D+00  3.3219263224614D-01  1.3261348484443D+00
   129  1.2800000000000D+00  3.0472321396189D-01  1.3526965154566D+00
   130  1.2900000000000D+00  2.7766735144662D-01  1.3774537330000D+00
   131  1.3000000000000D+00  2.5107089297249D-01  1.4003202842932D+00
   132  1.3100000000000D+00  2.2497816684508D-01  1.4212156088147D+00
   133  1.3200000000000D+00  1.9943183541884D-01  1.4400652204790D+00
   134  1.3300000000000D+00  1.7447275515707D-01  1.4568011017269D+00
   135  1.3400000000000D+00  1.5013984342462D-01  1.4713620710663D+00
   136  1.3500000000000D+00  1.2646995264401D-01  1.4836941218554D+00
   137  1.3600000000000D+00  1.0349775239823D-01  1.4937507303085D+00
   138  1.3700000000000D+00  8.1255620108362D-02  1.5014931305265D+00
   139  1.3800000000000D+00  5.9773540765941D-02  1.5068905549666D+00
   140  1.3900000000000D+00  3.9079016240777D-02  1.5099204385970D+00
   141  1.4000000000000D+00  1.9196984645368D-02  1.5105685851484D+00
   142  1.4100000000000D+00  1.4975008356288D-04  1.5088292945019D+00
   143  1.4200000000000D+00 -1.8043076750725D-02  1.5047054496869D+00
   144  1.4300000000000D+00 -3.5364626905251D-02  1.4982085629708D+00
   145  1.4400000000000D+00 -5.1800810146332D-02  1.4893587802456D+00
   146  1.4500000000000D+00 -6.7340340321395D-02  1.4781848430325D+00
   147  1.4600000000000D+00 -8.1974749100673D-02  1.4647240084294D+00
   148  1.4700000000000D+00 -9.5698387807485D-02  1.4490219261997D+00
   149  1.4800000000000D+00 -1.0850841750149D-01  1.4311324740066D+00
   150  1.4900000000000D+00 -1.2040478719294D-01  1.4111175506606D+00
   151  1.5000000000000D+00 -1.3139020032180D-01  1.3890468282643D+00
   152  1.5100000000000D+00 -1.4147006968224D-01  1.3649974643045D+00
   153  1.5200000000000D+00 -1.5065246083892D-01  1.3390537742415D+00
   154  1.5300000000000D+00 -1.5894802452254D-01  1.3113068668249D+00
   155  1.5400000000000D+00 -1.6636991799989D-01  1.2818542424988D+00
   156  1.5500000000000D+00 -1.7293371609750D-01  1.2507993578452D+00
   157  1.5600000000000D+00 -1.7865731199303D-01  1.2182511568886D+00
   158  1.5700000000000D+00 -1.8356080846058D-01  1.1843235722262D+00
   159  1.5800000000000D+00 -1.8766639990850D-01  1.1491349976433D+00
   160  1.5900000000000D+00 -1.9099824585140D-01  1.1128077350110D+00
   161  1.6000000000000D+00 -1.9358233636844D-01  1.0754674178940D+00
   162  1.6100000000000D+00 -1.9544635015452D-01  1.0372424145435D+00
   163  1.6200000000000D+00 -1.9661950588615D-01  9.9826321327356D-01
   164  1.6300000000000D+00 -1.9713240749911D-01  9.5866179288915D-01
   165  1.6400000000000D+00 -1.9701688421176D-01  9.1857098148360D-01
   166  1.6500000000000D+00 -1.9630582591427D-01  8.7812380639952D-01
   167  1.6600000000000D+00 -1.9503301480598D-01  8.3745283872708D-01
   168  1.6700000000000D+00 -1.9323295395722D-01  7.9668953538772D-01
   169  1.6800000000000D+00 -1.9094069366299D-01  7.5596358197538D-01
   170  1.6900000000000D+00 -1.8819165634917D-01  7.1540223976332D-01
   171  1.7000000000000D+00 -1.8502146082676D-01  6.7512969962224D-01
   172  1.7100000000000D+00 -1.8146574675759D-01  6.3526644667416D-01
   173  1.7200000000000D+00 -1.7756000001045D-01  5.9592863783902D-01
   174  1.7300000000000D+00 -1.7333937987649D-01  5.5722749649760D-01
   175  1.7400000000000D+00 -1.6883854868162D-01  5.1926872576908D-01
   176  1.7500000000000D+00 -1.6409150396535D-01  4.8215193948785D-01
   177  1.7600000000000D+00 -1.5913141923132D-01  4.4597014611467D-01
   178  1.7700000000000D+00 -1.5399047403938D-01  4.1080916831597D-01
   179  1.7800000000000D+00 -1.4869972843347D-01  3.7674731744509D-01
   180  1.7900000000000D+00 -1.4328896326081D-01  3.4385488041468D-01
   181  1.8000000000000D+00 -1.3778647434737D-01  3.1219329412647D-01
   182  1.8100000000000D+00 -1.3221901692965D-01  2.8181523252853D-01
   183  1.8200000000000D+00 -1.2661184919730D-01  2.5276532824755D-01
   184  1.8300000000000D+00 -1.2098875763582D-01  2.2508067636333D-01
   185  1.8400000000000D+00 -1.1537214962696D-01  1.9879157732071D-01
   186  1.8500000000000D+00 -1.0978316001163D-01  1.7392238121785D-01
   187  1.8600000000000D+00 -1.0424155381722D-01  1.5049103165707D-01
   188  1.8700000000000D+00 -9.8765678268123D-02  1.2850884356866D-01
   189  1.8800000000000D+00 -9.3372487264960D-02  1.0798080417096D-01
   190  1.8900000000000D+00 -8.8077520844457D-02  8.8905539366524D-02
   191  1.9000000000000D+00 -8.2894908858772D-02  7.1275431126613D-02
   192  1.9100000000000D+00 -7.7837378351811D-02  5.5076746587317D-02
   193  1.9200000000000D+00 -7.2916267232395D-02  4.0289795709865D-02
   194  1.9300000000000D+00 -6.8141544723154D-02  2.6889121044686D-02
   195  1.9400000000000D+00 -6.3521837935308D-02  1.4843715641769D-02
   196  1.9500000000000D+00 -5.9064465144283D-02  4.1172722504608D-03
   197  1.9600000000000D+00 -5.4775474284580D-02 -5.3315439891016D-03
   198  1.9700000000000D+00 -5.0659688002350D-02 -1.3548792623114D-02
   199  1.9800000000000D+00 -4.6720753401542D-02 -2.0584934091047D-02
   200  1.9900000000000D+00 -4.2961197316436D-02 -2.6494481165305D-02
   201  2.0000000000000D+00 -3.9382486176758D-02 -3.1335630206621D-02
   202  2.0100000000000D+00 -3.5985090002402D-02 -3.5169874612092D-02
   203  2.0200000000000D+00 -3.2768550697797D-02 -3.8061599948096D-02
   204  2.0300000000000D+00 -2.9731553233663D-02 -4.0077667278169D-02
   205  2.0400000000000D+00 -2.6872000269509D-02 -4.1286982714735D-02
   206  2.0500000000000D+00 -2.4187088903870D-02 -4.1760059044652D-02
   207  2.0600000000000D+00 -2.1673389433448D-02 -4.1568570437891D-02
   208  2.0700000000000D+00 -1.9326925574348D-02 -4.0784902935781D-02
   209  2.0800000000000D+00 -1.7143255431287D-02 -3.9481703854080D-02
   210  2.0900000000000D+00 -1.5117552816998D-02 -3.7731432681505D-02
   211  2.1000000000000D+00 -1.3244688391420D-02 -3.5605915407359D-02
   212  2.1100000000000D+00 -1.1519309921992D-02 -3.3175906113319D-02
   213  2.1200000000000D+00 -9.9359211955752D-03 -3.0510657976107D-02
   214  2.1300000000000D+00 -8.4889593692918D-03 -2.7677504516845D-02
   215  2.1400000000000D+00 -7.1728694109901D-03 -2.4741457972406D-02
   216  2.1500000000000D+00 -5.9821762614795D-03 -2.1764821346107D-02
   217  2.1600000000000D+00 -4.9115533001063D-03 -1.8806821182666D-02
   218  2.1700000000000D+00 -3.9558867829023D-03 -1.5923262592809D-02
   219  2.1800000000000D+00 -3.1103369637154D-03 -1.3166203008772D-02
   220  2.1900000000000D+00 -2.3705497681542D-03 -1.0585384950344D-02
   221  2.2000000000000D+00 -1.7322791255989D-03 -8.2232309031696D-03
   222  2.2100000000000D+00 -1.1913321939992D-03 -6.1134928724960D-03
   223  2.2200000000000D+00 -7.4423881850034D-04 -4.2771891165655D-03
   224  2.2300000000000D+00 -3.8957480535710D-04 -2.7778891622915D-03
   225  2.2400000000000D+00 -1.2567438715421D-04 -1.6664940606432D-03
   226  2.2500000000000D+00  5.1385125991123D-05 -9.6354465526969D-04
   227  2.2600000000000D+00  1.3999611964993D-04 -5.4988035906610D-04
   228  2.2700000000000D+00  1.4310199744359D-04 -2.9829118252067D-04
   229  2.2800000000000D+00  8.5698302787067D-05 -1.2487623818737D-04
   230  2.2900000000000D+00  1.5785223888804D-05 -1.8629372765296D-05
   231  2.3000000000000D+00 -1.8331526622029D-05  1.9468246007447D-05
   232  2.3100000000000D+00 -1.7568563304938D-05  1.6525193471684D-05
   233  2.3200000000000D+00 -3.1828959444959D-07  2.7270055339596D-07
   234  2.3300000000000D+00  4.3035168716762D-06 -5.5305791990074D-06
   235  2.3400000000000D+00  3.3415616520154D-06 -4.1269548140433D-06
   236  2.3500000000000D+00 -1.1269892485678D-07  2.9765905823891D-07
   237  2.3600000000000D+00 -4.3117023682555D-07  1.1388016948452D-06
   238  2.3700000000000D+00 -2.6286413929236D-07  6.9427363434014D-07
   239  2.3800000000000D+00  0.0000000000000D+00  0.0000000000000D+00
   240  2.3900000000000D+00  0.0000000000000D+00  0.0000000000000D+00
   241  2.4000000000000D+00  0.0000000000000D+00  0.0000000000000D+00
   242  2.4100000000000D+00  0.0000000000000D+00  0.0000000000000D+00
   243  2.4200000000000D+00  0.0000000000000D+00  0.0000000000000D+00
   244  2.4300000000000D+00  0.0000000000000D+00  0.0000000000000D+00
   245  2.4400000000000D+00  0.0000000000000D+00  0.0000000000000D+00
   246  2.4500000000000D+00  0.0000000000000D+00  0.0000000000000D+00
   247  2.4600000000000D+00  0.0000000000000D+00  0.0000000000000D+00
   248  2.4700000000000D+00  0.0000000000000D+00  0.0000000000000D+00
   249  2.4800000000000D+00  0.0000000000000D+00  0.0000000000000D+00
   250  2.4900000000000D+00  0.0000000000000D+00  0.0000000000000D+00
   251  2.5000000000000D+00  0.0000000000000D+00  0.0000000000000D+00
   252  2.5100000000000D+00  0.0000000000000D+00  0.0000000000000D+00
   253  2.5200000000000D+00  0.0000000000000D+00  0.0000000000000D+00
   254  2.5300000000000D+00  0.0000000000000D+00  0.0000000000000D+00
   255  2.5400000000000D+00  0.0000000000000D+00  0.0000000000000D+00
   256  2.5500000000000D+00  0.0000000000000D+00  0.0000000000000D+00
   257  2.5600000000000D+00  0.0000000000000D+00  0.0000000000000D+00
   258  2.5700000000000D+00  0.0000000000000D+00  0.0000000000000D+00
   259  2.5800000000000D+00  0.0000000000000D+00  0.0000000000000D+00
   260  2.5900000000000D+00  0.0000000000000D+00  0.0000000000000D+00
   261  2.6000000000000D+00  0.0000000000000D+00  0.0000000000000D+00
   262  2.6100000000000D+00  0.0000000000000D+00  0.0000000000000D+00
   263  2.6200000000000D+00  0.0000000000000D+00  0.0000000000000D+00
   264  2.6300000000000D+00  0.0000000000000D+00  0.0000000000000D+00
   265  2.6400000000000D+00  0.0000000000000D+00  0.0000000000000D+00
   266  2.6500000000000D+00  0.0000000000000D+00  0.0000000000000D+00
   267  2.6600000000000D+00  0.0000000000000D+00  0.0000000000000D+00
   268  2.6700000000000D+00  0.0000000000000D+00  0.0000000000000D+00
   269  2.6800000000000D+00  0.0000000000000D+00  0.0000000000000D+00
   270  2.6900000000000D+00  0.0000000000000D+00  0.0000000000000D+00
   271  2.7000000000000D+00  0.0000000000000D+00  0.0000000000000D+00
   272  2.7100000000000D+00  0.0000000000000D+00  0.0000000000000D+00
   273  2.7200000000000D+00  0.0000000000000D+00  0.0000000000000D+00
   274  2.7300000000000D+00  0.0000000000000D+00  0.0000000000000D+00
   275  2.7400000000000D+00  0.0000000000000D+00  0.0000000000000D+00
   276  2.7500000000000D+00  0.0000000000000D+00  0.0000000000000D+00
   277  2.7600000000000D+00  0.0000000000000D+00  0.0000000000000D+00
   278  2.7700000000000D+00  0.0000000000000D+00  0.0000000000000D+00
   279  2.7800000000000D+00  0.0000000000000D+00  0.0000000000000D+00
   280  2.7900000000000D+00  0.0000000000000D+00  0.0000000000000D+00
   281  2.8000000000000D+00  0.0000000000000D+00  0.0000000000000D+00
   282  2.8100000000000D+00  0.0000000000000D+00  0.0000000000000D+00
   283  2.8200000000000D+00  0.0000000000000D+00  0.0000000000000D+00
   284  2.8300000000000D+00  0.0000000000000D+00  0.0000000000000D+00
   285  2.8400000000000D+00  0.0000000000000D+00  0.0000000000000D+00
   286  2.8500000000000D+00  0.0000000000000D+00  0.0000000000000D+00
   287  2.8600000000000D+00  0.0000000000000D+00  0.0000000000000D+00
   288  2.8700000000000D+00  0.0000000000000D+00  0.0000000000000D+00
   289  2.8800000000000D+00  0.0000000000000D+00  0.0000000000000D+00
   290  2.8900000000000D+00  0.0000000000000D+00  0.0000000000000D+00
   291  2.9000000000000D+00  0.0000000000000D+00  0.0000000000000D+00
   292  2.9100000000000D+00  0.0000000000000D+00  0.0000000000000D+00
   293  2.9200000000000D+00  0.0000000000000D+00  0.0000000000000D+00
   294  2.9300000000000D+00  0.0000000000000D+00  0.0000000000000D+00
   295  2.9400000000000D+00  0.0000000000000D+00  0.0000000000000D+00
   296  2.9500000000000D+00  0.0000000000000D+00  0.0000000000000D+00
   297  2.9600000000000D+00  0.0000000000000D+00  0.0000000000000D+00
   298  2.9700000000000D+00  0.0000000000000D+00  0.0000000000000D+00
   299  2.9800000000000D+00  0.0000000000000D+00  0.0000000000000D+00
   300  2.9900000000000D+00  0.0000000000000D+00  0.0000000000000D+00
   301  3.0000000000000D+00  0.0000000000000D+00  0.0000000000000D+00
   302  3.0100000000000D+00  0.0000000000000D+00  0.0000000000000D+00
   303  3.0200000000000D+00  0.0000000000000D+00  0.0000000000000D+00
   304  3.0300000000000D+00  0.0000000000000D+00  0.0000000000000D+00
   305  3.0400000000000D+00  0.0000000000000D+00  0.0000000000000D+00
   306  3.0500000000000D+00  0.0000000000000D+00  0.0000000000000D+00
   307  3.0600000000000D+00  0.0000000000000D+00  0.0000000000000D+00
   308  3.0700000000000D+00  0.0000000000000D+00  0.0000000000000D+00
   309  3.0800000000000D+00  0.0000000000000D+00  0.0000000000000D+00
   310  3.0900000000000D+00  0.0000000000000D+00  0.0000000000000D+00
   311  3.1000000000000D+00  0.0000000000000D+00  0.0000000000000D+00
   312  3.1100000000000D+00  0.0000000000000D+00  0.0000000000000D+00
   313  3.1200000000000D+00  0.0000000000000D+00  0.0000000000000D+00
   314  3.1300000000000D+00  0.0000000000000D+00  0.0000000000000D+00
   315  3.1400000000000D+00  0.0000000000000D+00  0.0000000000000D+00
   316  3.1500000000000D+00  0.0000000000000D+00  0.0000000000000D+00
   317  3.1600000000000D+00  0.0000000000000D+00  0.0000000000000D+00
   318  3.1700000000000D+00  0.0000000000000D+00  0.0000000000000D+00
   319  3.1800000000000D+00  0.0000000000000D+00  0.0000000000000D+00
   320  3.1900000000000D+00  0.0000000000000D+00  0.0000000000000D+00
   321  3.2000000000000D+00  0.0000000000000D+00  0.0000000000000D+00
   322  3.2100000000000D+00  0.0000000000000D+00  0.0000000000000D+00
   323  3.2200000000000D+00  0.0000000000000D+00  0.0000000000000D+00
   324  3.2300000000000D+00  0.0000000000000D+00  0.0000000000000D+00
   325  3.2400000000000D+00  0.0000000000000D+00  0.0000000000000D+00
   326  3.2500000000000D+00  0.0000000000000D+00  0.0000000000000D+00
   327  3.2600000000000D+00  0.0000000000000D+00  0.0000000000000D+00
   328  3.2700000000000D+00  0.0000000000000D+00  0.0000000000000D+00
   329  3.2800000000000D+00  0.0000000000000D+00  0.0000000000000D+00
   330  3.2900000000000D+00  0.0000000000000D+00  0.0000000000000D+00
   331  3.3000000000000D+00  0.0000000000000D+00  0.0000000000000D+00
   332  3.3100000000000D+00  0.0000000000000D+00  0.0000000000000D+00
   333  3.3200000000000D+00  0.0000000000000D+00  0.0000000000000D+00
   334  3.3300000000000D+00  0.0000000000000D+00  0.0000000000000D+00
   335  3.3400000000000D+00  0.0000000000000D+00  0.0000000000000D+00
   336  3.3500000000000D+00  0.0000000000000D+00  0.0000000000000D+00
   337  3.3600000000000D+00  0.0000000000000D+00  0.0000000000000D+00
   338  3.3700000000000D+00  0.0000000000000D+00  0.0000000000000D+00
   339  3.3800000000000D+00  0.0000000000000D+00  0.0000000000000D+00
   340  3.3900000000000D+00  0.0000000000000D+00  0.0000000000000D+00
   341  3.4000000000000D+00  0.0000000000000D+00  0.0000000000000D+00
   342  3.4100000000000D+00  0.0000000000000D+00  0.0000000000000D+00
   343  3.4200000000000D+00  0.0000000000000D+00  0.0000000000000D+00
   344  3.4300000000000D+00  0.0000000000000D+00  0.0000000000000D+00
   345  3.4400000000000D+00  0.0000000000000D+00  0.0000000000000D+00
   346  3.4500000000000D+00  0.0000000000000D+00  0.0000000000000D+00
   347  3.4600000000000D+00  0.0000000000000D+00  0.0000000000000D+00
   348  3.4700000000000D+00  0.0000000000000D+00  0.0000000000000D+00
   349  3.4800000000000D+00  0.0000000000000D+00  0.0000000000000D+00
   350  3.4900000000000D+00  0.0000000000000D+00  0.0000000000000D+00
   351  3.5000000000000D+00  0.0000000000000D+00  0.0000000000000D+00
   352  3.5100000000000D+00  0.0000000000000D+00  0.0000000000000D+00
   353  3.5200000000000D+00  0.0000000000000D+00  0.0000000000000D+00
   354  3.5300000000000D+00  0.0000000000000D+00  0.0000000000000D+00
   355  3.5400000000000D+00  0.0000000000000D+00  0.0000000000000D+00
   356  3.5500000000000D+00  0.0000000000000D+00  0.0000000000000D+00
   357  3.5600000000000D+00  0.0000000000000D+00  0.0000000000000D+00
   358  3.5700000000000D+00  0.0000000000000D+00  0.0000000000000D+00
   359  3.5800000000000D+00  0.0000000000000D+00  0.0000000000000D+00
   360  3.5900000000000D+00  0.0000000000000D+00  0.0000000000000D+00
   361  3.6000000000000D+00  0.0000000000000D+00  0.0000000000000D+00
   362  3.6100000000000D+00  0.0000000000000D+00  0.0000000000000D+00
   363  3.6200000000000D+00  0.0000000000000D+00  0.0000000000000D+00
   364  3.6300000000000D+00  0.0000000000000D+00  0.0000000000000D+00
   365  3.6400000000000D+00  0.0000000000000D+00  0.0000000000000D+00
   366  3.6500000000000D+00  0.0000000000000D+00  0.0000000000000D+00
   367  3.6600000000000D+00  0.0000000000000D+00  0.0000000000000D+00
   368  3.6700000000000D+00  0.0000000000000D+00  0.0000000000000D+00
   369  3.6800000000000D+00  0.0000000000000D+00  0.0000000000000D+00
   370  3.6900000000000D+00  0.0000000000000D+00  0.0000000000000D+00
   371  3.7000000000000D+00  0.0000000000000D+00  0.0000000000000D+00
   372  3.7100000000000D+00  0.0000000000000D+00  0.0000000000000D+00
   373  3.7200000000000D+00  0.0000000000000D+00  0.0000000000000D+00
   374  3.7300000000000D+00  0.0000000000000D+00  0.0000000000000D+00
   375  3.7400000000000D+00  0.0000000000000D+00  0.0000000000000D+00
   376  3.7500000000000D+00  0.0000000000000D+00  0.0000000000000D+00
   377  3.7600000000000D+00  0.0000000000000D+00  0.0000000000000D+00
   378  3.7700000000000D+00  0.0000000000000D+00  0.0000000000000D+00
   379  3.7800000000000D+00  0.0000000000000D+00  0.0000000000000D+00
   380  3.7900000000000D+00  0.0000000000000D+00  0.0000000000000D+00
   381  3.8000000000000D+00  0.0000000000000D+00  0.0000000000000D+00
   382  3.8100000000000D+00  0.0000000000000D+00  0.0000000000000D+00
   383  3.8200000000000D+00  0.0000000000000D+00  0.0000000000000D+00
   384  3.8300000000000D+00  0.0000000000000D+00  0.0000000000000D+00
   385  3.8400000000000D+00  0.0000000000000D+00  0.0000000000000D+00
   386  3.8500000000000D+00  0.0000000000000D+00  0.0000000000000D+00
   387  3.8600000000000D+00  0.0000000000000D+00  0.0000000000000D+00
   388  3.8700000000000D+00  0.0000000000000D+00  0.0000000000000D+00
   389  3.8800000000000D+00  0.0000000000000D+00  0.0000000000000D+00
   390  3.8900000000000D+00  0.0000000000000D+00  0.0000000000000D+00
   391  3.9000000000000D+00  0.0000000000000D+00  0.0000000000000D+00
   392  3.9100000000000D+00  0.0000000000000D+00  0.0000000000000D+00
   393  3.9200000000000D+00  0.0000000000000D+00  0.0000000000000D+00
   394  3.9300000000000D+00  0.0000000000000D+00  0.0000000000000D+00
   395  3.9400000000000D+00  0.0000000000000D+00  0.0000000000000D+00
   396  3.9500000000000D+00  0.0000000000000D+00  0.0000000000000D+00
   397  3.9600000000000D+00  0.0000000000000D+00  0.0000000000000D+00
   398  3.9700000000000D+00  0.0000000000000D+00  0.0000000000000D+00
   399  3.9800000000000D+00  0.0000000000000D+00  0.0000000000000D+00
   400  3.9900000000000D+00  0.0000000000000D+00  0.0000000000000D+00
   401  4.0000000000000D+00  0.0000000000000D+00  0.0000000000000D+00
   402  4.0100000000000D+00  0.0000000000000D+00  0.0000000000000D+00
   403  4.0200000000000D+00  0.0000000000000D+00  0.0000000000000D+00
   404  4.0300000000000D+00  0.0000000000000D+00  0.0000000000000D+00
   405  4.0400000000000D+00  0.0000000000000D+00  0.0000000000000D+00
   406  4.0500000000000D+00  0.0000000000000D+00  0.0000000000000D+00
   407  4.0600000000000D+00  0.0000000000000D+00  0.0000000000000D+00
   408  4.0700000000000D+00  0.0000000000000D+00  0.0000000000000D+00
   409  4.0800000000000D+00  0.0000000000000D+00  0.0000000000000D+00
   410  4.0900000000000D+00  0.0000000000000D+00  0.0000000000000D+00
   411  4.1000000000000D+00  0.0000000000000D+00  0.0000000000000D+00
   412  4.1100000000000D+00  0.0000000000000D+00  0.0000000000000D+00
   413  4.1200000000000D+00  0.0000000000000D+00  0.0000000000000D+00
   414  4.1300000000000D+00  0.0000000000000D+00  0.0000000000000D+00
   415  4.1400000000000D+00  0.0000000000000D+00  0.0000000000000D+00
   416  4.1500000000000D+00  0.0000000000000D+00  0.0000000000000D+00
   417  4.1600000000000D+00  0.0000000000000D+00  0.0000000000000D+00
   418  4.1700000000000D+00  0.0000000000000D+00  0.0000000000000D+00
   419  4.1800000000000D+00  0.0000000000000D+00  0.0000000000000D+00
   420  4.1900000000000D+00  0.0000000000000D+00  0.0000000000000D+00
   421  4.2000000000000D+00  0.0000000000000D+00  0.0000000000000D+00
   422  4.2100000000000D+00  0.0000000000000D+00  0.0000000000000D+00