Te    ONCVPSP-3.3.0  r_core=   1.30874   1.30874   1.51015
     52.0000     24.0000      220117    zatom,zion,pspd
     8      11   2     4   600     0    pspcod,pspxc,lmax,lloc,mmax,r2well
  5.99000000  0.00000000  0.00000000    rchrg fchrg qchrg
     2     2     2     0     0    nproj
     1     1           extension_switch
   0                         9.1088902496423D+00 -3.8889085654326D-01
     1  0.0000000000000D+00 -5.3477589023743D-10 -1.0729261534781D-08
     2  1.0000000000000D-02  9.1995918138058D-02  6.6994646890955D-02
     3  2.0000000000000D-02  1.8371030553188D-01  1.3331552935603D-01
     4  3.0000000000000D-02  2.7486288790367D-01  1.9829829316881D-01
     5  4.0000000000000D-02  3.6517589389091D-01  2.6129724646810D-01
     6  5.0000000000000D-02  4.5437528159972D-01  3.2169429866102D-01
     7  6.0000000000000D-02  5.4219193566163D-01  3.7890743639343D-01
     8  7.0000000000000D-02  6.2836282560200D-01  4.3239859513517D-01
     9  8.0000000000000D-02  7.1263211686302D-01  4.8168079565628D-01
    10  9.0000000000000D-02  7.9475222647556D-01  5.2632442772346D-01
    11  1.0000000000000D-01  8.7448481612977D-01  5.6596257849204D-01
    12  1.1000000000000D-01  9.5160171624328D-01  6.0029532004017D-01
    13  1.2000000000000D-01  1.0258857755511D+00  6.2909288898969D-01
    14  1.3000000000000D-01  1.0971316317297D+00  6.5219771085335D-01
    15  1.4000000000000D-01  1.1651463995992D+00  6.6952524229200D-01
    16  1.5000000000000D-01  1.2297502745093D+00  6.8106362549270D-01
    17  1.6000000000000D-01  1.2907770495807D+00  6.8687217001390D-01
    18  1.7000000000000D-01  1.3480745465370D+00  6.8707869830955D-01
    19  1.8000000000000D-01  1.4015049608927D+00  6.8187581136600D-01
    20  1.9000000000000D-01  1.4509451232523D+00  6.7151615009810D-01
    21  2.0000000000000D-01  1.4962866794038D+00  6.5630674600867D-01
    22  2.1000000000000D-01  1.5374361927411D+00  6.3660257079036D-01
    23  2.2000000000000D-01  1.5743151733096D+00  6.1279940874718D-01
    24  2.3000000000000D-01  1.6068600384302D+00  5.8532618786944D-01
    25  2.4000000000000D-01  1.6350220103981D+00  5.5463691488764D-01
    26  2.5000000000000D-01  1.6587669571822D+00  5.2120236647696D-01
    27  2.6000000000000D-01  1.6780751823406D+00  4.8550169284780D-01
    28  2.7000000000000D-01  1.6929411705388D+00  4.4801409115570D-01
    29  2.8000000000000D-01  1.7033732950874D+00  4.0921070445842D-01
    30  2.9000000000000D-01  1.7093934938175D+00  3.6954689735775D-01
    31  3.0000000000000D-01  1.7110369193900D+00  3.2945505205558D-01
    32  3.1000000000000D-01  1.7083515697865D+00  2.8933801844993D-01
    33  3.2000000000000D-01  1.7013979042733D+00  2.4956333926379D-01
    34  3.3000000000000D-01  1.6902484495707D+00  2.1045835625635D-01
    35  3.4000000000000D-01  1.6749874003122D+00  1.7230628657049D-01
    36  3.5000000000000D-01  1.6557102171559D+00  1.3534333952233D-01
    37  3.6000000000000D-01  1.6325232251341D+00  9.9756923969357D-02
    38  3.7000000000000D-01  1.6055432140056D+00  6.5684975169474D-02
    39  3.8000000000000D-01  1.5748970415341D+00  3.3216408140926D-02
    40  3.9000000000000D-01  1.5407212397764D+00  2.3926823619239D-03
    41  4.0000000000000D-01  1.5031616236304D+00 -2.6789559389862D-02
    42  4.1000000000000D-01  1.4623729001075D+00 -5.4374836750076D-02
    43  4.2000000000000D-01  1.4185182760509D+00 -8.0444241264088D-02
    44  4.3000000000000D-01  1.3717690613583D+00 -1.0511000809783D-01
    45  4.4000000000000D-01  1.3223042641888D+00 -1.2850936587665D-01
    46  4.5000000000000D-01  1.2703101741578D+00 -1.5079779599104D-01
    47  4.6000000000000D-01  1.2159799291676D+00 -1.7214184576453D-01
    48  4.7000000000000D-01  1.1595130612887D+00 -1.9271165029522D-01
    49  4.8000000000000D-01  1.1011150170122D+00 -2.1267332533287D-01
    50  4.9000000000000D-01  1.0409966472417D+00 -2.3218139806389D-01
    51  5.0000000000000D-01  9.7937366258397D-01 -2.5137144402146D-01
    52  5.1000000000000D-01  9.1646604983485D-01 -2.7035309645705D-01
    53  5.2000000000000D-01  8.5249744604030D-01 -2.8920358939017D-01
    54  5.3000000000000D-01  7.8769446712734D-01 -3.0796198724504D-01
    55  5.4000000000000D-01  7.2228598884854D-01 -3.2662424262176D-01
    56  5.5000000000000D-01  6.5650237864824D-01 -3.4513920945201D-01
    57  5.6000000000000D-01  5.9057467802694D-01 -3.6340572185009D-01
    58  5.7000000000000D-01  5.2473373603611D-01 -3.8127082961249D-01
    59  5.8000000000000D-01  4.5920929566117D-01 -3.9852925987684D-01
    60  5.9000000000000D-01  3.9422903602195D-01 -4.1492415134871D-01
    61  6.0000000000000D-01  3.3001757452082D-01 -4.3014908303832D-01
    62  6.1000000000000D-01  2.6679543426967D-01 -4.4385139418157D-01
    63  6.2000000000000D-01  2.0477798330791D-01 -4.5563676633091D-01
    64  6.3000000000000D-01  1.4417435326191D-01 -4.6507501290855D-01
    65  6.4000000000000D-01  8.5186346158053D-02 -4.7170699655535D-01
    66  6.5000000000000D-01  2.8007339079567D-02 -4.7505257041928D-01
    67  6.6000000000000D-01 -2.7178802788453D-02 -4.7461941703016D-01
    68  6.7000000000000D-01 -8.0198793461740D-02 -4.6991263780286D-01
    69  6.8000000000000D-01 -1.3089096197683D-01 -4.6044492784323D-01
    70  6.9000000000000D-01 -1.7910624450956D-01 -4.4574715524440D-01
    71  7.0000000000000D-01 -2.2470912036979D-01 -4.2537915156556D-01
    72  7.1000000000000D-01 -2.6757847944497D-01 -3.9894051104274D-01
    73  7.2000000000000D-01 -3.0760840886888D-01 -3.6608119053349D-01
    74  7.3000000000000D-01 -3.4470888710507D-01 -3.2651170040584D-01
    75  7.4000000000000D-01 -3.7880637426101D-01 -2.8001267863244D-01
    76  7.5000000000000D-01 -4.0984428828354D-01 -2.2644364628202D-01
    77  7.6000000000000D-01 -4.3778335772160D-01 -1.6575075235752D-01
    78  7.7000000000000D-01 -4.6260184297450D-01 -9.7973329487508D-02
    79  7.8000000000000D-01 -4.8429561934645D-01 -2.3249099015158D-02
    80  7.9000000000000D-01 -5.0287811679430D-01  5.8182115572099D-02
    81  8.0000000000000D-01 -5.1838011295833D-01  1.4597628454462D-01
    82  8.1000000000000D-01 -5.3084937788280D-01  2.3968476881804D-01
    83  8.2000000000000D-01 -5.4035017073702D-01  3.3875568125309D-01
    84  8.3000000000000D-01 -5.4696259080948D-01  4.4253704582881D-01
    85  8.4000000000000D-01 -5.5078178703710D-01  5.5028175695782D-01
    86  8.5000000000000D-01 -5.5191703231592D-01  6.6115430932944D-01
    87  8.6000000000000D-01 -5.5049067078649D-01  7.7423923665707D-01
    88  8.7000000000000D-01 -5.4663694816394D-01  8.8855116614056D-01
    89  8.8000000000000D-01 -5.4050073695604D-01  1.0030463649061D+00
    90  8.9000000000000D-01 -5.3223617005240D-01  1.1166356257184D+00
    91  9.0000000000000D-01 -5.2200519764289D-01  1.2281983124163D+00
    92  9.1000000000000D-01 -5.0997608370699D-01  1.3365973613193D+00
    93  9.2000000000000D-01 -4.9632185938236D-01  1.4406950137581D+00
    94  9.3000000000000D-01 -4.8121875134866D-01  1.5393690373291D+00
    95  9.4000000000000D-01 -4.6484460393343D-01  1.6315291798247D+00
    96  9.5000000000000D-01 -4.4737731394629D-01  1.7161335903531D+00
    97  9.6000000000000D-01 -4.2899329726549D-01  1.7922049371691D+00
    98  9.7000000000000D-01 -4.0986600593568D-01  1.8588459512952D+00
    99  9.8000000000000D-01 -3.9016451396043D-01  1.9152541295421D+00
   100  9.9000000000000D-01 -3.7005218917064D-01  1.9607353390270D+00
   101  1.0000000000000D+00 -3.4968546739779D-01  1.9947160792733D+00
   102  1.0100000000000D+00 -3.2921274382250D-01  2.0167541757536D+00
   103  1.0200000000000D+00 -3.0877339474842D-01  2.0265477008683D+00
   104  1.0300000000000D+00 -2.8849694121769D-01  2.0239419442354D+00
   105  1.0400000000000D+00 -2.6850236381925D-01  2.0089342840515D+00
   106  1.0500000000000D+00 -2.4889757588245D-01  1.9816768431091D+00
   107  1.0600000000000D+00 -2.2977905995327D-01  1.9424768473601D+00
   108  1.0700000000000D+00 -2.1123166991265D-01  1.8917946434033D+00
   109  1.0800000000000D+00 -1.9332859874101D-01  1.8302393673849D+00
   110  1.0900000000000D+00 -1.7613150932091D-01  1.7585622981962D+00
   111  1.1000000000000D+00 -1.5969082332346D-01  1.6776479644560D+00
   112  1.1100000000000D+00 -1.4404616078011D-01  1.5885031131203D+00
   113  1.1200000000000D+00 -1.2922692050834D-01  1.4922436860995D+00
   114  1.1300000000000D+00 -1.1525298952921D-01  1.3900799836241D+00
   115  1.1400000000000D+00 -1.0213556754383D-01  1.2833002263030D+00
   116  1.1500000000000D+00 -8.9878090946253D-02  1.1732527534026D+00
   117  1.1600000000000D+00 -7.8477238936731D-02  1.0613271259961D+00
   118  1.1700000000000D+00 -6.7924003322110D-02  9.4893441973110D-01
   119  1.1800000000000D+00 -5.8204802583688D-02  8.3748700860962D-01
   120  1.1900000000000D+00 -4.9302619982381D-02  7.2837815472541D-01
   121  1.2000000000000D+00 -4.1198145107816D-02  6.2296172546932D-01
   122  1.2100000000000D+00 -3.3870898521835D-02  5.2253235637472D-01
   123  1.2200000000000D+00 -2.7300318985761D-02  4.2830638072058D-01
   124  1.2300000000000D+00 -2.1466793660049D-02  3.4140383347522D-01
   125  1.2400000000000D+00 -1.6352612831725D-02  2.6283181870692D-01
   126  1.2500000000000D+00 -1.1942831353198D-02  1.9346951984621D-01
   127  1.2600000000000D+00 -8.2260207437249D-03  1.3405510432456D-01
   128  1.2700000000000D+00 -5.1966806713460D-03  8.5204471588556D-02
   129  1.2800000000000D+00 -2.8429571902014D-03  4.7183052432331D-02
   130  1.2900000000000D+00 -1.1763419322054D-03  2.0409848359472D-02
   131  1.3000000000000D+00 -2.4618896431147D-04  5.7919245851488D-03
   132  1.3100000000000D+00  6.9695797689698D-05  5.6768779349523D-04
   133  1.3200000000000D+00  4.0690670478654D-05 -1.6303149432507D-04
   134  1.3300000000000D+00 -1.8422287587405D-05  1.0548879529032D-04
   135  1.3400000000000D+00 -1.0843675817371D-06  7.1348475614929D-06
   136  1.3500000000000D+00  3.4479683120329D-06 -1.5803325656467D-05
   137  1.3600000000000D+00 -1.1044685208994D-07 -1.7691619345742D-06
   138  1.3700000000000D+00 -7.4529099587790D-08 -1.1938234862632D-06
   139  1.3800000000000D+00  0.0000000000000D+00  0.0000000000000D+00
   140  1.3900000000000D+00  0.0000000000000D+00  0.0000000000000D+00
   141  1.4000000000000D+00  0.0000000000000D+00  0.0000000000000D+00
   142  1.4100000000000D+00  0.0000000000000D+00  0.0000000000000D+00
   143  1.4200000000000D+00  0.0000000000000D+00  0.0000000000000D+00
   144  1.4300000000000D+00  0.0000000000000D+00  0.0000000000000D+00
   145  1.4400000000000D+00  0.0000000000000D+00  0.0000000000000D+00
   146  1.4500000000000D+00  0.0000000000000D+00  0.0000000000000D+00
   147  1.4600000000000D+00  0.0000000000000D+00  0.0000000000000D+00
   148  1.4700000000000D+00  0.0000000000000D+00  0.0000000000000D+00
   149  1.4800000000000D+00  0.0000000000000D+00  0.0000000000000D+00
   150  1.4900000000000D+00  0.0000000000000D+00  0.0000000000000D+00
   151  1.5000000000000D+00  0.0000000000000D+00  0.0000000000000D+00
   152  1.5100000000000D+00  0.0000000000000D+00  0.0000000000000D+00
   153  1.5200000000000D+00  0.0000000000000D+00  0.0000000000000D+00
   154  1.5300000000000D+00  0.0000000000000D+00  0.0000000000000D+00
   155  1.5400000000000D+00  0.0000000000000D+00  0.0000000000000D+00
   156  1.5500000000000D+00  0.0000000000000D+00  0.0000000000000D+00
   157  1.5600000000000D+00  0.0000000000000D+00  0.0000000000000D+00
   158  1.5700000000000D+00  0.0000000000000D+00  0.0000000000000D+00
   159  1.5800000000000D+00  0.0000000000000D+00  0.0000000000000D+00
   160  1.5900000000000D+00  0.0000000000000D+00  0.0000000000000D+00
   161  1.6000000000000D+00  0.0000000000000D+00  0.0000000000000D+00
   162  1.6100000000000D+00  0.0000000000000D+00  0.0000000000000D+00
   163  1.6200000000000D+00  0.0000000000000D+00  0.0000000000000D+00
   164  1.6300000000000D+00  0.0000000000000D+00  0.0000000000000D+00
   165  1.6400000000000D+00  0.0000000000000D+00  0.0000000000000D+00
   166  1.6500000000000D+00  0.0000000000000D+00  0.0000000000000D+00
   167  1.6600000000000D+00  0.0000000000000D+00  0.0000000000000D+00
   168  1.6700000000000D+00  0.0000000000000D+00  0.0000000000000D+00
   169  1.6800000000000D+00  0.0000000000000D+00  0.0000000000000D+00
   170  1.6900000000000D+00  0.0000000000000D+00  0.0000000000000D+00
   171  1.7000000000000D+00  0.0000000000000D+00  0.0000000000000D+00
   172  1.7100000000000D+00  0.0000000000000D+00  0.0000000000000D+00
   173  1.7200000000000D+00  0.0000000000000D+00  0.0000000000000D+00
   174  1.7300000000000D+00  0.0000000000000D+00  0.0000000000000D+00
   175  1.7400000000000D+00  0.0000000000000D+00  0.0000000000000D+00
   176  1.7500000000000D+00  0.0000000000000D+00  0.0000000000000D+00
   177  1.7600000000000D+00  0.0000000000000D+00  0.0000000000000D+00
   178  1.7700000000000D+00  0.0000000000000D+00  0.0000000000000D+00
   179  1.7800000000000D+00  0.0000000000000D+00  0.0000000000000D+00
   180  1.7900000000000D+00  0.0000000000000D+00  0.0000000000000D+00
   181  1.8000000000000D+00  0.0000000000000D+00  0.0000000000000D+00
   182  1.8100000000000D+00  0.0000000000000D+00  0.0000000000000D+00
   183  1.8200000000000D+00  0.0000000000000D+00  0.0000000000000D+00
   184  1.8300000000000D+00  0.0000000000000D+00  0.0000000000000D+00
   185  1.8400000000000D+00  0.0000000000000D+00  0.0000000000000D+00
   186  1.8500000000000D+00  0.0000000000000D+00  0.0000000000000D+00
   187  1.8600000000000D+00  0.0000000000000D+00  0.0000000000000D+00
   188  1.8700000000000D+00  0.0000000000000D+00  0.0000000000000D+00
   189  1.8800000000000D+00  0.0000000000000D+00  0.0000000000000D+00
   190  1.8900000000000D+00  0.0000000000000D+00  0.0000000000000D+00
   191  1.9000000000000D+00  0.0000000000000D+00  0.0000000000000D+00
   192  1.9100000000000D+00  0.0000000000000D+00  0.0000000000000D+00
   193  1.9200000000000D+00  0.0000000000000D+00  0.0000000000000D+00
   194  1.9300000000000D+00  0.0000000000000D+00  0.0000000000000D+00
   195  1.9400000000000D+00  0.0000000000000D+00  0.0000000000000D+00
   196  1.9500000000000D+00  0.0000000000000D+00  0.0000000000000D+00
   197  1.9600000000000D+00  0.0000000000000D+00  0.0000000000000D+00
   198  1.9700000000000D+00  0.0000000000000D+00  0.0000000000000D+00
   199  1.9800000000000D+00  0.0000000000000D+00  0.0000000000000D+00
   200  1.9900000000000D+00  0.0000000000000D+00  0.0000000000000D+00
   201  2.0000000000000D+00  0.0000000000000D+00  0.0000000000000D+00
   202  2.0100000000000D+00  0.0000000000000D+00  0.0000000000000D+00
   203  2.0200000000000D+00  0.0000000000000D+00  0.0000000000000D+00
   204  2.0300000000000D+00  0.0000000000000D+00  0.0000000000000D+00
   205  2.0400000000000D+00  0.0000000000000D+00  0.0000000000000D+00
   206  2.0500000000000D+00  0.0000000000000D+00  0.0000000000000D+00
   207  2.0600000000000D+00  0.0000000000000D+00  0.0000000000000D+00
   208  2.0700000000000D+00  0.0000000000000D+00  0.0000000000000D+00
   209  2.0800000000000D+00  0.0000000000000D+00  0.0000000000000D+00
   210  2.0900000000000D+00  0.0000000000000D+00  0.0000000000000D+00
   211  2.1000000000000D+00  0.0000000000000D+00  0.0000000000000D+00
   212  2.1100000000000D+00  0.0000000000000D+00  0.0000000000000D+00
   213  2.1200000000000D+00  0.0000000000000D+00  0.0000000000000D+00
   214  2.1300000000000D+00  0.0000000000000D+00  0.0000000000000D+00
   215  2.1400000000000D+00  0.0000000000000D+00  0.0000000000000D+00
   216  2.1500000000000D+00  0.0000000000000D+00  0.0000000000000D+00
   217  2.1600000000000D+00  0.0000000000000D+00  0.0000000000000D+00
   218  2.1700000000000D+00  0.0000000000000D+00  0.0000000000000D+00
   219  2.1800000000000D+00  0.0000000000000D+00  0.0000000000000D+00
   220  2.1900000000000D+00  0.0000000000000D+00  0.0000000000000D+00
   221  2.2000000000000D+00  0.0000000000000D+00  0.0000000000000D+00
   222  2.2100000000000D+00  0.0000000000000D+00  0.0000000000000D+00
   223  2.2200000000000D+00  0.0000000000000D+00  0.0000000000000D+00
   224  2.2300000000000D+00  0.0000000000000D+00  0.0000000000000D+00
   225  2.2400000000000D+00  0.0000000000000D+00  0.0000000000000D+00
   226  2.2500000000000D+00  0.0000000000000D+00  0.0000000000000D+00
   227  2.2600000000000D+00  0.0000000000000D+00  0.0000000000000D+00
   228  2.2700000000000D+00  0.0000000000000D+00  0.0000000000000D+00
   229  2.2800000000000D+00  0.0000000000000D+00  0.0000000000000D+00
   230  2.2900000000000D+00  0.0000000000000D+00  0.0000000000000D+00
   231  2.3000000000000D+00  0.0000000000000D+00  0.0000000000000D+00
   232  2.3100000000000D+00  0.0000000000000D+00  0.0000000000000D+00
   233  2.3200000000000D+00  0.0000000000000D+00  0.0000000000000D+00
   234  2.3300000000000D+00  0.0000000000000D+00  0.0000000000000D+00
   235  2.3400000000000D+00  0.0000000000000D+00  0.0000000000000D+00
   236  2.3500000000000D+00  0.0000000000000D+00  0.0000000000000D+00
   237  2.3600000000000D+00  0.0000000000000D+00  0.0000000000000D+00
   238  2.3700000000000D+00  0.0000000000000D+00  0.0000000000000D+00
   239  2.3800000000000D+00  0.0000000000000D+00  0.0000000000000D+00
   240  2.3900000000000D+00  0.0000000000000D+00  0.0000000000000D+00
   241  2.4000000000000D+00  0.0000000000000D+00  0.0000000000000D+00
   242  2.4100000000000D+00  0.0000000000000D+00  0.0000000000000D+00
   243  2.4200000000000D+00  0.0000000000000D+00  0.0000000000000D+00
   244  2.4300000000000D+00  0.0000000000000D+00  0.0000000000000D+00
   245  2.4400000000000D+00  0.0000000000000D+00  0.0000000000000D+00
   246  2.4500000000000D+00  0.0000000000000D+00  0.0000000000000D+00
   247  2.4600000000000D+00  0.0000000000000D+00  0.0000000000000D+00
   248  2.4700000000000D+00  0.0000000000000D+00  0.0000000000000D+00
   249  2.4800000000000D+00  0.0000000000000D+00  0.0000000000000D+00
   250  2.4900000000000D+00  0.0000000000000D+00  0.0000000000000D+00
   251  2.5000000000000D+00  0.0000000000000D+00  0.0000000000000D+00
   252  2.5100000000000D+00  0.0000000000000D+00  0.0000000000000D+00
   253  2.5200000000000D+00  0.0000000000000D+00  0.0000000000000D+00
   254  2.5300000000000D+00  0.0000000000000D+00  0.0000000000000D+00
   255  2.5400000000000D+00  0.0000000000000D+00  0.0000000000000D+00
   256  2.5500000000000D+00  0.0000000000000D+00  0.0000000000000D+00
   257  2.5600000000000D+00  0.0000000000000D+00  0.0000000000000D+00
   258  2.5700000000000D+00  0.0000000000000D+00  0.0000000000000D+00
   259  2.5800000000000D+00  0.0000000000000D+00  0.0000000000000D+00
   260  2.5900000000000D+00  0.0000000000000D+00  0.0000000000000D+00
   261  2.6000000000000D+00  0.0000000000000D+00  0.0000000000000D+00
   262  2.6100000000000D+00  0.0000000000000D+00  0.0000000000000D+00
   263  2.6200000000000D+00  0.0000000000000D+00  0.0000000000000D+00
   264  2.6300000000000D+00  0.0000000000000D+00  0.0000000000000D+00
   265  2.6400000000000D+00  0.0000000000000D+00  0.0000000000000D+00
   266  2.6500000000000D+00  0.0000000000000D+00  0.0000000000000D+00
   267  2.6600000000000D+00  0.0000000000000D+00  0.0000000000000D+00
   268  2.6700000000000D+00  0.0000000000000D+00  0.0000000000000D+00
   269  2.6800000000000D+00  0.0000000000000D+00  0.0000000000000D+00
   270  2.6900000000000D+00  0.0000000000000D+00  0.0000000000000D+00
   271  2.7000000000000D+00  0.0000000000000D+00  0.0000000000000D+00
   272  2.7100000000000D+00  0.0000000000000D+00  0.0000000000000D+00
   273  2.7200000000000D+00  0.0000000000000D+00  0.0000000000000D+00
   274  2.7300000000000D+00  0.0000000000000D+00  0.0000000000000D+00
   275  2.7400000000000D+00  0.0000000000000D+00  0.0000000000000D+00
   276  2.7500000000000D+00  0.0000000000000D+00  0.0000000000000D+00
   277  2.7600000000000D+00  0.0000000000000D+00  0.0000000000000D+00
   278  2.7700000000000D+00  0.0000000000000D+00  0.0000000000000D+00
   279  2.7800000000000D+00  0.0000000000000D+00  0.0000000000000D+00
   280  2.7900000000000D+00  0.0000000000000D+00  0.0000000000000D+00
   281  2.8000000000000D+00  0.0000000000000D+00  0.0000000000000D+00
   282  2.8100000000000D+00  0.0000000000000D+00  0.0000000000000D+00
   283  2.8200000000000D+00  0.0000000000000D+00  0.0000000000000D+00
   284  2.8300000000000D+00  0.0000000000000D+00  0.0000000000000D+00
   285  2.8400000000000D+00  0.0000000000000D+00  0.0000000000000D+00
   286  2.8500000000000D+00  0.0000000000000D+00  0.0000000000000D+00
   287  2.8600000000000D+00  0.0000000000000D+00  0.0000000000000D+00
   288  2.8700000000000D+00  0.0000000000000D+00  0.0000000000000D+00
   289  2.8800000000000D+00  0.0000000000000D+00  0.0000000000000D+00
   290  2.8900000000000D+00  0.0000000000000D+00  0.0000000000000D+00
   291  2.9000000000000D+00  0.0000000000000D+00  0.0000000000000D+00
   292  2.9100000000000D+00  0.0000000000000D+00  0.0000000000000D+00
   293  2.9200000000000D+00  0.0000000000000D+00  0.0000000000000D+00
   294  2.9300000000000D+00  0.0000000000000D+00  0.0000000000000D+00
   295  2.9400000000000D+00  0.0000000000000D+00  0.0000000000000D+00
   296  2.9500000000000D+00  0.0000000000000D+00  0.0000000000000D+00
   297  2.9600000000000D+00  0.0000000000000D+00  0.0000000000000D+00
   298  2.9700000000000D+00  0.0000000000000D+00  0.0000000000000D+00
   299  2.9800000000000D+00  0.0000000000000D+00  0.0000000000000D+00
   300  2.9900000000000D+00  0.0000000000000D+00  0.0000000000000D+00
   301  3.0000000000000D+00  0.0000000000000D+00  0.0000000000000D+00
   302  3.0100000000000D+00  0.0000000000000D+00  0.0000000000000D+00
   303  3.0200000000000D+00  0.0000000000000D+00  0.0000000000000D+00
   304  3.0300000000000D+00  0.0000000000000D+00  0.0000000000000D+00
   305  3.0400000000000D+00  0.0000000000000D+00  0.0000000000000D+00
   306  3.0500000000000D+00  0.0000000000000D+00  0.0000000000000D+00
   307  3.0600000000000D+00  0.0000000000000D+00  0.0000000000000D+00
   308  3.0700000000000D+00  0.0000000000000D+00  0.0000000000000D+00
   309  3.0800000000000D+00  0.0000000000000D+00  0.0000000000000D+00
   310  3.0900000000000D+00  0.0000000000000D+00  0.0000000000000D+00
   311  3.1000000000000D+00  0.0000000000000D+00  0.0000000000000D+00
   312  3.1100000000000D+00  0.0000000000000D+00  0.0000000000000D+00
   313  3.1200000000000D+00  0.0000000000000D+00  0.0000000000000D+00
   314  3.1300000000000D+00  0.0000000000000D+00  0.0000000000000D+00
   315  3.1400000000000D+00  0.0000000000000D+00  0.0000000000000D+00
   316  3.1500000000000D+00  0.0000000000000D+00  0.0000000000000D+00
   317  3.1600000000000D+00  0.0000000000000D+00  0.0000000000000D+00
   318  3.1700000000000D+00  0.0000000000000D+00  0.0000000000000D+00
   319  3.1800000000000D+00  0.0000000000000D+00  0.0000000000000D+00
   320  3.1900000000000D+00  0.0000000000000D+00  0.0000000000000D+00
   321  3.2000000000000D+00  0.0000000000000D+00  0.0000000000000D+00
   322  3.2100000000000D+00  0.0000000000000D+00  0.0000000000000D+00
   323  3.2200000000000D+00  0.0000000000000D+00  0.0000000000000D+00
   324  3.2300000000000D+00  0.0000000000000D+00  0.0000000000000D+00
   325  3.2400000000000D+00  0.0000000000000D+00  0.0000000000000D+00
   326  3.2500000000000D+00  0.0000000000000D+00  0.0000000000000D+00
   327  3.2600000000000D+00  0.0000000000000D+00  0.0000000000000D+00
   328  3.2700000000000D+00  0.0000000000000D+00  0.0000000000000D+00
   329  3.2800000000000D+00  0.0000000000000D+00  0.0000000000000D+00
   330  3.2900000000000D+00  0.0000000000000D+00  0.0000000000000D+00
   331  3.3000000000000D+00  0.0000000000000D+00  0.0000000000000D+00
   332  3.3100000000000D+00  0.0000000000000D+00  0.0000000000000D+00
   333  3.3200000000000D+00  0.0000000000000D+00  0.0000000000000D+00
   334  3.3300000000000D+00  0.0000000000000D+00  0.0000000000000D+00
   335  3.3400000000000D+00  0.0000000000000D+00  0.0000000000000D+00
   336  3.3500000000000D+00  0.0000000000000D+00  0.0000000000000D+00
   337  3.3600000000000D+00  0.0000000000000D+00  0.0000000000000D+00
   338  3.3700000000000D+00  0.0000000000000D+00  0.0000000000000D+00
   339  3.3800000000000D+00  0.0000000000000D+00  0.0000000000000D+00
   340  3.3900000000000D+00  0.0000000000000D+00  0.0000000000000D+00
   341  3.4000000000000D+00  0.0000000000000D+00  0.0000000000000D+00
   342  3.4100000000000D+00  0.0000000000000D+00  0.0000000000000D+00
   343  3.4200000000000D+00  0.0000000000000D+00  0.0000000000000D+00
   344  3.4300000000000D+00  0.0000000000000D+00  0.0000000000000D+00
   345  3.4400000000000D+00  0.0000000000000D+00  0.0000000000000D+00
   346  3.4500000000000D+00  0.0000000000000D+00  0.0000000000000D+00
   347  3.4600000000000D+00  0.0000000000000D+00  0.0000000000000D+00
   348  3.4700000000000D+00  0.0000000000000D+00  0.0000000000000D+00
   349  3.4800000000000D+00  0.0000000000000D+00  0.0000000000000D+00
   350  3.4900000000000D+00  0.0000000000000D+00  0.0000000000000D+00
   351  3.5000000000000D+00  0.0000000000000D+00  0.0000000000000D+00
   352  3.5100000000000D+00  0.0000000000000D+00  0.0000000000000D+00
   353  3.5200000000000D+00  0.0000000000000D+00  0.0000000000000D+00
   354  3.5300000000000D+00  0.0000000000000D+00  0.0000000000000D+00
   355  3.5400000000000D+00  0.0000000000000D+00  0.0000000000000D+00
   356  3.5500000000000D+00  0.0000000000000D+00  0.0000000000000D+00
   357  3.5600000000000D+00  0.0000000000000D+00  0.0000000000000D+00
   358  3.5700000000000D+00  0.0000000000000D+00  0.0000000000000D+00
   359  3.5800000000000D+00  0.0000000000000D+00  0.0000000000000D+00
   360  3.5900000000000D+00  0.0000000000000D+00  0.0000000000000D+00
   361  3.6000000000000D+00  0.0000000000000D+00  0.0000000000000D+00
   362  3.6100000000000D+00  0.0000000000000D+00  0.0000000000000D+00
   363  3.6200000000000D+00  0.0000000000000D+00  0.0000000000000D+00
   364  3.6300000000000D+00  0.0000000000000D+00  0.0000000000000D+00
   365  3.6400000000000D+00  0.0000000000000D+00  0.0000000000000D+00
   366  3.6500000000000D+00  0.0000000000000D+00  0.0000000000000D+00
   367  3.6600000000000D+00  0.0000000000000D+00  0.0000000000000D+00
   368  3.6700000000000D+00  0.0000000000000D+00  0.0000000000000D+00
   369  3.6800000000000D+00  0.0000000000000D+00  0.0000000000000D+00
   370  3.6900000000000D+00  0.0000000000000D+00  0.0000000000000D+00
   371  3.7000000000000D+00  0.0000000000000D+00  0.0000000000000D+00
   372  3.7100000000000D+00  0.0000000000000D+00  0.0000000000000D+00
   373  3.7200000000000D+00  0.0000000000000D+00  0.0000000000000D+00
   374  3.7300000000000D+00  0.0000000000000D+00  0.0000000000000D+00
   375  3.7400000000000D+00  0.0000000000000D+00  0.0000000000000D+00
   376  3.7500000000000D+00  0.0000000000000D+00  0.0000000000000D+00
   377  3.7600000000000D+00  0.0000000000000D+00  0.0000000000000D+00
   378  3.7700000000000D+00  0.0000000000000D+00  0.0000000000000D+00
   379  3.7800000000000D+00  0.0000000000000D+00  0.0000000000000D+00
   380  3.7900000000000D+00  0.0000000000000D+00  0.0000000000000D+00
   381  3.8000000000000D+00  0.0000000000000D+00  0.0000000000000D+00
   382  3.8100000000000D+00  0.0000000000000D+00  0.0000000000000D+00
   383  3.8200000000000D+00  0.0000000000000D+00  0.0000000000000D+00
   384  3.8300000000000D+00  0.0000000000000D+00  0.0000000000000D+00
   385  3.8400000000000D+00  0.0000000000000D+00  0.0000000000000D+00
   386  3.8500000000000D+00  0.0000000000000D+00  0.0000000000000D+00
   387  3.8600000000000D+00  0.0000000000000D+00  0.0000000000000D+00
   388  3.8700000000000D+00  0.0000000000000D+00  0.0000000000000D+00
   389  3.8800000000000D+00  0.0000000000000D+00  0.0000000000000D+00
   390  3.8900000000000D+00  0.0000000000000D+00  0.0000000000000D+00
   391  3.9000000000000D+00  0.0000000000000D+00  0.0000000000000D+00
   392  3.9100000000000D+00  0.0000000000000D+00  0.0000000000000D+00
   393  3.9200000000000D+00  0.0000000000000D+00  0.0000000000000D+00
   394  3.9300000000000D+00  0.0000000000000D+00  0.0000000000000D+00
   395  3.9400000000000D+00  0.0000000000000D+00  0.0000000000000D+00
   396  3.9500000000000D+00  0.0000000000000D+00  0.0000000000000D+00
   397  3.9600000000000D+00  0.0000000000000D+00  0.0000000000000D+00
   398  3.9700000000000D+00  0.0000000000000D+00  0.0000000000000D+00
   399  3.9800000000000D+00  0.0000000000000D+00  0.0000000000000D+00
   400  3.9900000000000D+00  0.0000000000000D+00  0.0000000000000D+00
   401  4.0000000000000D+00  0.0000000000000D+00  0.0000000000000D+00
   402  4.0100000000000D+00  0.0000000000000D+00  0.0000000000000D+00
   403  4.0200000000000D+00  0.0000000000000D+00  0.0000000000000D+00
   404  4.0300000000000D+00  0.0000000000000D+00  0.0000000000000D+00
   405  4.0400000000000D+00  0.0000000000000D+00  0.0000000000000D+00
   406  4.0500000000000D+00  0.0000000000000D+00  0.0000000000000D+00
   407  4.0600000000000D+00  0.0000000000000D+00  0.0000000000000D+00
   408  4.0700000000000D+00  0.0000000000000D+00  0.0000000000000D+00
   409  4.0800000000000D+00  0.0000000000000D+00  0.0000000000000D+00
   410  4.0900000000000D+00  0.0000000000000D+00  0.0000000000000D+00
   411  4.1000000000000D+00  0.0000000000000D+00  0.0000000000000D+00
   412  4.1100000000000D+00  0.0000000000000D+00  0.0000000000000D+00
   413  4.1200000000000D+00  0.0000000000000D+00  0.0000000000000D+00
   414  4.1300000000000D+00  0.0000000000000D+00  0.0000000000000D+00
   415  4.1400000000000D+00  0.0000000000000D+00  0.0000000000000D+00
   416  4.1500000000000D+00  0.0000000000000D+00  0.0000000000000D+00
   417  4.1600000000000D+00  0.0000000000000D+00  0.0000000000000D+00
   418  4.1700000000000D+00  0.0000000000000D+00  0.0000000000000D+00
   419  4.1800000000000D+00  0.0000000000000D+00  0.0000000000000D+00
   420  4.1900000000000D+00  0.0000000000000D+00  0.0000000000000D+00
   421  4.2000000000000D+00  0.0000000000000D+00  0.0000000000000D+00
   422  4.2100000000000D+00  0.0000000000000D+00  0.0000000000000D+00