Te    ONCVPSP-3.3.0  r_core=   2.40470   2.21206   2.61411
     52.0000      6.0000      220117    zatom,zion,pspd
     8      11   2     4   600     0    pspcod,pspxc,lmax,lloc,mmax,r2well
  5.99000000  0.00000000  0.00000000    rchrg fchrg qchrg
     2     2     2     0     0    nproj
     1     1           extension_switch
   0                         4.4705518944649D+00  4.0951328462493D-01
     1  0.0000000000000D+00 -1.0241446579684D-11  4.5070919219015D-11
     2  1.0000000000000D-02  2.4984479629709D-02 -1.1640218201619D-02
     3  2.0000000000000D-02  4.9946796075765D-02 -2.3215448321569D-02
     4  3.0000000000000D-02  7.4864871559541D-02 -3.4661082932127D-02
     5  4.0000000000000D-02  9.9716798631825D-02 -4.5913273764196D-02
     6  5.0000000000000D-02  1.2448092413853D-01 -5.6909305924818D-02
     7  6.0000000000000D-02  1.4913593175487D-01 -6.7587965712453D-02
     8  7.0000000000000D-02  1.7366092262283D-01 -7.7889899948910D-02
     9  8.0000000000000D-02  1.9803549363706D-01 -8.7757964791894D-02
    10  9.0000000000000D-02  2.2223981293700D-01 -9.7137562048092D-02
    11  1.0000000000000D-01  2.4625469217811D-01 -1.0597696107312D-01
    12  1.1000000000000D-01  2.7006165517258D-01 -1.1422760442136D-01
    13  1.2000000000000D-01  2.9364300250946D-01 -1.2184439549536D-01
    14  1.3000000000000D-01  3.1698187178601D-01 -1.2878596654015D-01
    15  1.4000000000000D-01  3.4006229310589D-01 -1.3501492543281D-01
    16  1.5000000000000D-01  3.6286923952532D-01 -1.4049807983097D-01
    17  1.6000000000000D-01  3.8538867215624D-01 -1.4520663736447D-01
    18  1.7000000000000D-01  4.0760757966403D-01 -1.4911638068318D-01
    19  1.8000000000000D-01  4.2951401192846D-01 -1.5220781630830D-01
    20  1.9000000000000D-01  4.5109710766808D-01 -1.5446629637505D-01
    21  2.0000000000000D-01  4.7234711586152D-01 -1.5588211250076D-01
    22  2.1000000000000D-01  4.9325541083307D-01 -1.5645056116196D-01
    23  2.2000000000000D-01  5.1381450090492D-01 -1.5617198011811D-01
    24  2.3000000000000D-01  5.3401803055375D-01 -1.5505175557614D-01
    25  2.4000000000000D-01  5.5386077604541D-01 -1.5310029994837D-01
    26  2.5000000000000D-01  5.7333863455761D-01 -1.5033300021642D-01
    27  2.6000000000000D-01  5.9244860683678D-01 -1.4677013707380D-01
    28  2.7000000000000D-01  6.1118877347134D-01 -1.4243677517944D-01
    29  2.8000000000000D-01  6.2955826489966D-01 -1.3736262501330D-01
    30  2.9000000000000D-01  6.4755722530602D-01 -1.3158187698121D-01
    31  3.0000000000000D-01  6.6518677059296D-01 -1.2513300856977D-01
    32  3.1000000000000D-01  6.8244894065168D-01 -1.1805856550188D-01
    33  3.2000000000000D-01  6.9934664618553D-01 -1.1040491798881D-01
    34  3.3000000000000D-01  7.1588361037250D-01 -1.0222199331448D-01
    35  3.4000000000000D-01  7.3206430568340D-01 -9.3562986122143D-02
    36  3.5000000000000D-01  7.4789388620037D-01 -8.4484047900271D-02
    37  3.6000000000000D-01  7.6337811580793D-01 -7.5043957285076D-02
    38  3.7000000000000D-01  7.7852329265323D-01 -6.5303772908325D-02
    39  3.8000000000000D-01  7.9333617029542D-01 -5.5326470622654D-02
    40  3.9000000000000D-01  8.0782387598510D-01 -4.5176567030390D-02
    41  4.0000000000000D-01  8.2199382653322D-01 -3.4919731326287D-02
    42  4.1000000000000D-01  8.3585364224529D-01 -2.4622387538148D-02
    43  4.2000000000000D-01  8.4941105941056D-01 -1.4351309313269D-02
    44  4.3000000000000D-01  8.6267384184713D-01 -4.1732094503360D-03
    45  4.4000000000000D-01  8.7564969201286D-01  5.8456735821769D-03
    46  4.5000000000000D-01  8.8834616219766D-01  1.5639989870996D-02
    47  4.6000000000000D-01  9.0077056631650D-01  2.5145690738440D-02
    48  4.7000000000000D-01  9.1292989282286D-01  3.4300437584979D-02
    49  4.8000000000000D-01  9.2483071926008D-01  4.3044004606855D-02
    50  4.9000000000000D-01  9.3647912896358D-01  5.1318673120282D-02
    51  5.0000000000000D-01  9.4788063041873D-01  5.9069615254360D-02
    52  5.1000000000000D-01  9.5904007976918D-01  6.6245264816989D-02
    53  5.2000000000000D-01  9.6996160695703D-01  7.2797673192608D-02
    54  5.3000000000000D-01  9.8064854596080D-01  7.8682848196269D-02
    55  5.4000000000000D-01  9.9110336957852D-01  8.3861073885296D-02
    56  5.5000000000000D-01  1.0013276291827D+00  8.8297209418257D-02
    57  5.6000000000000D-01  1.0113218998508D+00  9.1960965149019D-02
    58  5.7000000000000D-01  1.0210857312485D+00  9.4827154252456D-02
    59  5.8000000000000D-01  1.0306176046168D+00  9.6875918296530D-02
    60  5.9000000000000D-01  1.0399148961831D+00  9.8092925302518D-02
    61  6.0000000000000D-01  1.0489738472847D+00  9.8469538970866D-02
    62  6.1000000000000D-01  1.0577895414606D+00  9.8002957893445D-02
    63  6.2000000000000D-01  1.0663558887317D+00  9.6696323723320D-02
    64  6.3000000000000D-01  1.0746656172532D+00  9.4558797430058D-02
    65  6.4000000000000D-01  1.0827102724850D+00  9.1605602930617D-02
    66  6.5000000000000D-01  1.0904802239889D+00  8.7858037553112D-02
    67  6.6000000000000D-01  1.0979646799179D+00  8.3343448961884D-02
    68  6.7000000000000D-01  1.1051517092272D+00  7.8095178345549D-02
    69  6.8000000000000D-01  1.1120282715917D+00  7.2152469846851D-02
    70  6.9000000000000D-01  1.1185802549769D+00  6.5560346390207D-02
    71  7.0000000000000D-01  1.1247925207663D+00  5.8369452240351D-02
    72  7.1000000000000D-01  1.1306489563091D+00  5.0635862803359D-02
    73  7.2000000000000D-01  1.1361325347111D+00  4.2420862356848D-02
    74  7.3000000000000D-01  1.1412253816513D+00  3.3790690569827D-02
    75  7.4000000000000D-01  1.1459088489674D+00  2.4816258842711D-02
    76  7.5000000000000D-01  1.1501635947154D+00  1.5572837664196D-02
    77  7.6000000000000D-01  1.1539696693720D+00  6.1397163423129D-03
    78  7.7000000000000D-01  1.1573066078114D+00 -3.4001633772606D-03
    79  7.8000000000000D-01  1.1601535266553D+00 -1.2960598145133D-02
    80  7.9000000000000D-01  1.1624892265622D+00 -2.2452536492418D-02
    81  8.0000000000000D-01  1.1642922989914D+00 -3.1784513031433D-02
    82  8.1000000000000D-01  1.1655412369503D+00 -4.0863101315381D-02
    83  8.2000000000000D-01  1.1662145492044D+00 -4.9593383186173D-02
    84  8.3000000000000D-01  1.1662908774109D+00 -5.7879432336381D-02
    85  8.4000000000000D-01  1.1657491156105D+00 -6.5624809719071D-02
    86  8.5000000000000D-01  1.1645685314986D+00 -7.2733068358890D-02
    87  8.6000000000000D-01  1.1627288888777D+00 -7.9108265049027D-02
    88  8.7000000000000D-01  1.1602105706826D+00 -8.4655476362983D-02
    89  8.8000000000000D-01  1.1569947019610D+00 -8.9281316366266D-02
    90  8.9000000000000D-01  1.1530632721825D+00 -9.2894453383855D-02
    91  9.0000000000000D-01  1.1483992562498D+00 -9.5406123162013D-02
    92  9.1000000000000D-01  1.1429867335830D+00 -9.6730635760161D-02
    93  9.2000000000000D-01  1.1368110046507D+00 -9.6785873519198D-02
    94  9.3000000000000D-01  1.1298587043309D+00 -9.5493777476687D-02
    95  9.4000000000000D-01  1.1221179114897D+00 -9.2780819637509D-02
    96  9.5000000000000D-01  1.1135782541822D+00 -8.8578458559984D-02
    97  9.6000000000000D-01  1.1042310098941D+00 -8.2823575782268D-02
    98  9.7000000000000D-01  1.0940692002599D+00 -7.5458890691755D-02
    99  9.8000000000000D-01  1.0830876797191D+00 -6.6433351532532D-02
   100  9.9000000000000D-01  1.0712832175912D+00 -5.5702500345707D-02
   101  1.0000000000000D+00  1.0586545730833D+00 -4.3228809756474D-02
   102  1.0100000000000D+00  1.0452025627698D+00 -2.8981989646621D-02
   103  1.0200000000000D+00  1.0309301201185D+00 -1.2939261888975D-02
   104  1.0300000000000D+00  1.0158423466722D+00  4.9143985322839D-03
   105  1.0400000000000D+00  9.9994655453170D-01  2.4586057531610D-02
   106  1.0500000000000D+00  9.8325229982642D-01  4.6074652415173D-02
   107  1.0600000000000D+00  9.6577140689735D-01  6.9370860037967D-02
   108  1.0700000000000D+00  9.4751798296408D-01  9.4457003616059D-02
   109  1.0800000000000D+00  9.2850842308835D-01  1.2130699900656D-01
   110  1.0900000000000D+00  9.0876140529492D-01  1.4988634106568D-01
   111  1.1000000000000D+00  8.8829787575494D-01  1.8015213050741D-01
   112  1.1100000000000D+00  8.6714102398429D-01  2.1205314148405D-01
   113  1.1200000000000D+00  8.4531624806044D-01  2.4552992989462D-01
   114  1.1300000000000D+00  8.2285110990683D-01  2.8051498223466D-01
   115  1.1400000000000D+00  7.9977528074490D-01  3.1693290458392D-01
   116  1.1500000000000D+00  7.7612047685467D-01  3.5470065115702D-01
   117  1.1600000000000D+00  7.5192038584408D-01  3.9372779158996D-01
   118  1.1700000000000D+00  7.2721058366771D-01  4.3391681596636D-01
   119  1.1800000000000D+00  7.0202844268164D-01  4.7516347639107D-01
   120  1.1900000000000D+00  6.7641303106463D-01  5.1735716373576D-01
   121  1.2000000000000D+00  6.5040500398708D-01  5.6038131796551D-01
   122  1.2100000000000D+00  6.2404648694996D-01  6.0411387028306D-01
   123  1.2200000000000D+00  5.9738095174067D-01  6.4842771522376D-01
   124  1.2300000000000D+00  5.7045308551512D-01  6.9319121057182D-01
   125  1.2400000000000D+00  5.4330865353992D-01  7.3826870286593D-01
   126  1.2500000000000D+00  5.1599435615429D-01  7.8352107615377D-01
   127  1.2600000000000D+00  4.8855768055530D-01  8.2880632147234D-01
   128  1.2700000000000D+00  4.6104674803789D-01  8.7398012441361D-01
   129  1.2800000000000D+00  4.3351015733384D-01  9.1889646808439D-01
   130  1.2900000000000D+00  4.0599682472756D-01  9.6340824862751D-01
   131  1.3000000000000D+00  3.7855582164748D-01  1.0073679003883D+00
   132  1.3100000000000D+00  3.5123621043368D-01  1.0506280278020D+00
   133  1.3200000000000D+00  3.2408687900971D-01  1.0930420409669D+00
   134  1.3300000000000D+00  2.9715637518829D-01  1.1344647918647D+00
   135  1.3400000000000D+00  2.7049274134294D-01  1.1747532081807D+00
   136  1.3500000000000D+00  2.4414335019023D-01  1.2137669216269D+00
   137  1.3600000000000D+00  2.1815474240602D-01  1.2513688877701D+00
   138  1.3700000000000D+00  1.9257246682126D-01  1.2874259942650D+00
   139  1.3800000000000D+00  1.6744092390409D-01  1.3218096545770D+00
   140  1.3900000000000D+00  1.4280321323698D-01  1.3543963842609D+00
   141  1.4000000000000D+00  1.1870098569971D-01  1.3850683568622D+00
   142  1.4100000000000D+00  9.5174300987003D-02  1.4137139368669D+00
   143  1.4200000000000D+00  7.2261491163407D-02  1.4402281867999D+00
   144  1.4300000000000D+00  4.9999030832778D-02  1.4645133461262D+00
   145  1.4400000000000D+00  2.8421414521972D-02  1.4864792795077D+00
   146  1.4500000000000D+00  7.5610418827994D-03  1.5060438919526D+00
   147  1.4600000000000D+00 -1.2551888866388D-02  1.5231335091867D+00
   148  1.4700000000000D+00 -3.1889478632132D-02  1.5376832206841D+00
   149  1.4800000000000D+00 -5.0426215969707D-02  1.5496371842102D+00
   150  1.4900000000000D+00 -6.8139055935937D-02  1.5589488898512D+00
   151  1.5000000000000D+00 -8.5007488947614D-02  1.5655813822847D+00
   152  1.5100000000000D+00 -1.0101359938715D-01  1.5695074403247D+00
   153  1.5200000000000D+00 -1.1614211355343D-01  1.5707097121561D+00
   154  1.5300000000000D+00 -1.3038043697986D-01  1.5691808064972D+00
   155  1.5400000000000D+00 -1.4371868065845D-01  1.5649233378548D+00
   156  1.5500000000000D+00 -1.5614967638850D-01  1.5579499269506D+00
   157  1.5600000000000D+00 -1.6766898089587D-01  1.5482831549455D+00
   158  1.5700000000000D+00 -1.7827486896349D-01  1.5359554726321D+00
   159  1.5800000000000D+00 -1.8796831545345D-01  1.5210090642261D+00
   160  1.5900000000000D+00 -1.9675296642039D-01  1.5034956667510D+00
   161  1.6000000000000D+00 -2.0463509945484D-01  1.4834763457455D+00
   162  1.6100000000000D+00 -2.1162357340780D-01  1.4610212280843D+00
   163  1.6200000000000D+00 -2.1772976788414D-01  1.4362091936965D+00
   164  1.6300000000000D+00 -2.2296751261934D-01  1.4091275268175D+00
   165  1.6400000000000D+00 -2.2735300734760D-01  1.3798715294853D+00
   166  1.6500000000000D+00 -2.3090473226271D-01  1.3485440978704D+00
   167  1.6600000000000D+00 -2.3364334985770D-01  1.3152552648866D+00
   168  1.6700000000000D+00 -2.3559159826336D-01  1.2801217097614D+00
   169  1.6800000000000D+00 -2.3677417699737D-01  1.2432662385248D+00
   170  1.6900000000000D+00 -2.3721762529849D-01  1.2048172363362D+00
   171  1.7000000000000D+00 -2.3695019402538D-01  1.1649080958686D+00
   172  1.7100000000000D+00 -2.3600171138525D-01  1.1236766230662D+00
   173  1.7200000000000D+00 -2.3440344348036D-01  1.0812644244988D+00
   174  1.7300000000000D+00 -2.3218795006030D-01  1.0378162781588D+00
   175  1.7400000000000D+00 -2.2938893642227D-01  9.9347949169971D-01
   176  1.7500000000000D+00 -2.2604110199111D-01  9.4840325057300D-01
   177  1.7600000000000D+00 -2.2217998643396D-01  9.0273795966661D-01
   178  1.7700000000000D+00 -2.1784181398689D-01  8.5663458150941D-01
   179  1.7800000000000D+00 -2.1306333674358D-01  8.1024397418663D-01
   180  1.7900000000000D+00 -2.0788167769829D-01  7.6371623248723D-01
   181  1.8000000000000D+00 -2.0233417421003D-01  7.1720003508316D-01
   182  1.8100000000000D+00 -1.9645822271758D-01  6.7084200136072D-01
   183  1.8200000000000D+00 -1.9029112536419D-01  6.2478606070627D-01
   184  1.8300000000000D+00 -1.8386993926244D-01  5.7917283735085D-01
   185  1.8400000000000D+00 -1.7723132918810D-01  5.3413905420062D-01
   186  1.8500000000000D+00 -1.7041142413554D-01  4.8981695735547D-01
   187  1.8600000000000D+00 -1.6344567885078D-01  4.4633376624757D-01
   188  1.8700000000000D+00 -1.5636874024400D-01  4.0381114867214D-01
   189  1.8800000000000D+00 -1.4921432025574D-01  3.6236472770966D-01
   190  1.8900000000000D+00 -1.4201507460500D-01  3.2210361768627D-01
   191  1.9000000000000D+00 -1.3480248908329D-01  2.8312999652999D-01
   192  1.9100000000000D+00 -1.2760677289184D-01  2.4553871203143D-01
   193  1.9200000000000D+00 -1.2045676016131D-01  2.0941692694854D-01
   194  1.9300000000000D+00 -1.1337981978523D-01  1.7484380335349D-01
   195  1.9400000000000D+00 -1.0640177364017D-01  1.4189022634864D-01
   196  1.9500000000000D+00 -9.9546824435867D-02  1.1061857253653D-01
   197  1.9600000000000D+00 -9.2837491821564D-02  8.1082516912674D-02
   198  1.9700000000000D+00 -8.6294559096544D-02  5.3326888470503D-02
   199  1.9800000000000D+00 -7.9937028480347D-02  2.7387565230505D-02
   200  1.9900000000000D+00 -7.3782086779806D-02  3.2914166747279D-03
   201  2.0000000000000D+00 -6.7845080586873D-02 -1.8943710435867D-02
   202  2.0100000000000D+00 -6.2139500921315D-02 -3.9308963426251D-02
   203  2.0200000000000D+00 -5.6676978386233D-02 -5.7804407715837D-02
   204  2.0300000000000D+00 -5.1467286702982D-02 -7.4438913065768D-02
   205  2.0400000000000D+00 -4.6518356957984D-02 -8.9229991977874D-02
   206  2.0500000000000D+00 -4.1836300103261D-02 -1.0220360123849D-01
   207  2.0600000000000D+00 -3.7425438772328D-02 -1.1339390213556D-01
   208  2.0700000000000D+00 -3.3288348075802D-02 -1.2284298101069D-01
   209  2.0800000000000D+00 -2.9425903757557D-02 -1.3060053741213D-01
   210  2.0900000000000D+00 -2.5837339484222D-02 -1.3672353232015D-01
   211  2.1000000000000D+00 -2.2520310539685D-02 -1.4127580851133D-01
   212  2.1100000000000D+00 -1.9470965049540D-02 -1.4432767839051D-01
   213  2.1200000000000D+00 -1.6684021773692D-02 -1.4595548366534D-01
   214  2.1300000000000D+00 -1.4152853186670D-02 -1.4624113258954D-01
   215  2.1400000000000D+00 -1.1869574091476D-02 -1.4527161502134D-01
   216  2.1500000000000D+00 -9.8251373608540D-03 -1.4313848299488D-01
   217  2.1600000000000D+00 -8.0094302839032D-03 -1.3993733532400D-01
   218  2.1700000000000D+00 -6.4113646025915D-03 -1.3576734353754D-01
   219  2.1800000000000D+00 -5.0190189063247D-03 -1.3073048923294D-01
   220  2.1900000000000D+00 -3.8197093597568D-03 -1.2493120289413D-01
   221  2.2000000000000D+00 -2.8000760850522D-03 -1.1847593195871D-01
   222  2.2100000000000D+00 -1.9461972873310D-03 -1.1147254872416D-01
   223  2.2200000000000D+00 -1.2437995432584D-03 -1.0402920492065D-01
   224  2.2300000000000D+00 -6.7840838178261D-04 -9.6253508449777D-02
   225  2.2400000000000D+00 -2.3552226640727D-04 -8.8251637195877D-02
   226  2.2500000000000D+00  9.9221791805790D-05 -8.0127489851531D-02
   227  2.2600000000000D+00  3.3981993655894D-04 -7.1981477086967D-02
   228  2.2700000000000D+00  4.9985918380208D-04 -6.3910387876544D-02
   229  2.2800000000000D+00  5.9240333171232D-04 -5.6006851594270D-02
   230  2.2900000000000D+00  6.2989535683186D-04 -4.8358885743383D-02
   231  2.3000000000000D+00  6.2403826407721D-04 -4.1049300588445D-02
   232  2.3100000000000D+00  5.8571060470998D-04 -3.4155312629741D-02
   233  2.3200000000000D+00  5.2487749433240D-04 -2.7748119753087D-02
   234  2.3300000000000D+00  4.5071934590734D-04 -2.1898959119668D-02
   235  2.3400000000000D+00  3.7071942264760D-04 -1.6652928039780D-02
   236  2.3500000000000D+00  2.9125399306394D-04 -1.2052095934022D-02
   237  2.3600000000000D+00  2.1755581631272D-04 -8.1348476082461D-03
   238  2.3700000000000D+00  1.5693213892388D-04 -5.0034256512553D-03
   239  2.3800000000000D+00  1.1456356300541D-04 -2.7202425767194D-03
   240  2.3900000000000D+00  8.9679540423979D-05 -1.2553693445401D-03
   241  2.4000000000000D+00  7.2388272418683D-05 -4.3380530341138D-04
   242  2.4100000000000D+00  5.2178357873965D-05 -5.8796847471505D-05
   243  2.4200000000000D+00  2.7715645333194D-05  4.7382001405826D-05
   244  2.4300000000000D+00  6.0365523101690D-06  2.0057760577001D-05
   245  2.4400000000000D+00 -4.6816239653837D-06 -1.9571337021692D-05
   246  2.4500000000000D+00 -5.3525150900519D-06 -2.7184677793584D-05
   247  2.4600000000000D+00 -1.3386246083656D-06 -7.6942496331527D-06
   248  2.4700000000000D+00  1.0694967618254D-06  2.9187242871123D-06
   249  2.4800000000000D+00  1.2694992473518D-06  3.8777807860844D-06
   250  2.4900000000000D+00  2.9534878565392D-07  9.8299382219261D-07
   251  2.5000000000000D+00 -1.4291957242705D-07  4.8164012159667D-07
   252  2.5100000000000D+00 -1.7143906874174D-07  5.7775105615672D-07
   253  2.5200000000000D+00 -3.9836543882011D-08  1.3424947691553D-07
   254  2.5300000000000D+00  0.0000000000000D+00  0.0000000000000D+00
   255  2.5400000000000D+00  0.0000000000000D+00  0.0000000000000D+00
   256  2.5500000000000D+00  0.0000000000000D+00  0.0000000000000D+00
   257  2.5600000000000D+00  0.0000000000000D+00  0.0000000000000D+00
   258  2.5700000000000D+00  0.0000000000000D+00  0.0000000000000D+00
   259  2.5800000000000D+00  0.0000000000000D+00  0.0000000000000D+00
   260  2.5900000000000D+00  0.0000000000000D+00  0.0000000000000D+00
   261  2.6000000000000D+00  0.0000000000000D+00  0.0000000000000D+00
   262  2.6100000000000D+00  0.0000000000000D+00  0.0000000000000D+00
   263  2.6200000000000D+00  0.0000000000000D+00  0.0000000000000D+00
   264  2.6300000000000D+00  0.0000000000000D+00  0.0000000000000D+00
   265  2.6400000000000D+00  0.0000000000000D+00  0.0000000000000D+00
   266  2.6500000000000D+00  0.0000000000000D+00  0.0000000000000D+00
   267  2.6600000000000D+00  0.0000000000000D+00  0.0000000000000D+00
   268  2.6700000000000D+00  0.0000000000000D+00  0.0000000000000D+00
   269  2.6800000000000D+00  0.0000000000000D+00  0.0000000000000D+00
   270  2.6900000000000D+00  0.0000000000000D+00  0.0000000000000D+00
   271  2.7000000000000D+00  0.0000000000000D+00  0.0000000000000D+00
   272  2.7100000000000D+00  0.0000000000000D+00  0.0000000000000D+00
   273  2.7200000000000D+00  0.0000000000000D+00  0.0000000000000D+00
   274  2.7300000000000D+00  0.0000000000000D+00  0.0000000000000D+00
   275  2.7400000000000D+00  0.0000000000000D+00  0.0000000000000D+00
   276  2.7500000000000D+00  0.0000000000000D+00  0.0000000000000D+00
   277  2.7600000000000D+00  0.0000000000000D+00  0.0000000000000D+00
   278  2.7700000000000D+00  0.0000000000000D+00  0.0000000000000D+00
   279  2.7800000000000D+00  0.0000000000000D+00  0.0000000000000D+00
   280  2.7900000000000D+00  0.0000000000000D+00  0.0000000000000D+00
   281  2.8000000000000D+00  0.0000000000000D+00  0.0000000000000D+00
   282  2.8100000000000D+00  0.0000000000000D+00  0.0000000000000D+00
   283  2.8200000000000D+00  0.0000000000000D+00  0.0000000000000D+00
   284  2.8300000000000D+00  0.0000000000000D+00  0.0000000000000D+00
   285  2.8400000000000D+00  0.0000000000000D+00  0.0000000000000D+00
   286  2.8500000000000D+00  0.0000000000000D+00  0.0000000000000D+00
   287  2.8600000000000D+00  0.0000000000000D+00  0.0000000000000D+00
   288  2.8700000000000D+00  0.0000000000000D+00  0.0000000000000D+00
   289  2.8800000000000D+00  0.0000000000000D+00  0.0000000000000D+00
   290  2.8900000000000D+00  0.0000000000000D+00  0.0000000000000D+00
   291  2.9000000000000D+00  0.0000000000000D+00  0.0000000000000D+00
   292  2.9100000000000D+00  0.0000000000000D+00  0.0000000000000D+00
   293  2.9200000000000D+00  0.0000000000000D+00  0.0000000000000D+00
   294  2.9300000000000D+00  0.0000000000000D+00  0.0000000000000D+00
   295  2.9400000000000D+00  0.0000000000000D+00  0.0000000000000D+00
   296  2.9500000000000D+00  0.0000000000000D+00  0.0000000000000D+00
   297  2.9600000000000D+00  0.0000000000000D+00  0.0000000000000D+00
   298  2.9700000000000D+00  0.0000000000000D+00  0.0000000000000D+00
   299  2.9800000000000D+00  0.0000000000000D+00  0.0000000000000D+00
   300  2.9900000000000D+00  0.0000000000000D+00  0.0000000000000D+00
   301  3.0000000000000D+00  0.0000000000000D+00  0.0000000000000D+00
   302  3.0100000000000D+00  0.0000000000000D+00  0.0000000000000D+00
   303  3.0200000000000D+00  0.0000000000000D+00  0.0000000000000D+00
   304  3.0300000000000D+00  0.0000000000000D+00  0.0000000000000D+00
   305  3.0400000000000D+00  0.0000000000000D+00  0.0000000000000D+00
   306  3.0500000000000D+00  0.0000000000000D+00  0.0000000000000D+00
   307  3.0600000000000D+00  0.0000000000000D+00  0.0000000000000D+00
   308  3.0700000000000D+00  0.0000000000000D+00  0.0000000000000D+00
   309  3.0800000000000D+00  0.0000000000000D+00  0.0000000000000D+00
   310  3.0900000000000D+00  0.0000000000000D+00  0.0000000000000D+00
   311  3.1000000000000D+00  0.0000000000000D+00  0.0000000000000D+00
   312  3.1100000000000D+00  0.0000000000000D+00  0.0000000000000D+00
   313  3.1200000000000D+00  0.0000000000000D+00  0.0000000000000D+00
   314  3.1300000000000D+00  0.0000000000000D+00  0.0000000000000D+00
   315  3.1400000000000D+00  0.0000000000000D+00  0.0000000000000D+00
   316  3.1500000000000D+00  0.0000000000000D+00  0.0000000000000D+00
   317  3.1600000000000D+00  0.0000000000000D+00  0.0000000000000D+00
   318  3.1700000000000D+00  0.0000000000000D+00  0.0000000000000D+00
   319  3.1800000000000D+00  0.0000000000000D+00  0.0000000000000D+00
   320  3.1900000000000D+00  0.0000000000000D+00  0.0000000000000D+00
   321  3.2000000000000D+00  0.0000000000000D+00  0.0000000000000D+00
   322  3.2100000000000D+00  0.0000000000000D+00  0.0000000000000D+00
   323  3.2200000000000D+00  0.0000000000000D+00  0.0000000000000D+00
   324  3.2300000000000D+00  0.0000000000000D+00  0.0000000000000D+00
   325  3.2400000000000D+00  0.0000000000000D+00  0.0000000000000D+00
   326  3.2500000000000D+00  0.0000000000000D+00  0.0000000000000D+00
   327  3.2600000000000D+00  0.0000000000000D+00  0.0000000000000D+00
   328  3.2700000000000D+00  0.0000000000000D+00  0.0000000000000D+00
   329  3.2800000000000D+00  0.0000000000000D+00  0.0000000000000D+00
   330  3.2900000000000D+00  0.0000000000000D+00  0.0000000000000D+00
   331  3.3000000000000D+00  0.0000000000000D+00  0.0000000000000D+00
   332  3.3100000000000D+00  0.0000000000000D+00  0.0000000000000D+00
   333  3.3200000000000D+00  0.0000000000000D+00  0.0000000000000D+00
   334  3.3300000000000D+00  0.0000000000000D+00  0.0000000000000D+00
   335  3.3400000000000D+00  0.0000000000000D+00  0.0000000000000D+00
   336  3.3500000000000D+00  0.0000000000000D+00  0.0000000000000D+00
   337  3.3600000000000D+00  0.0000000000000D+00  0.0000000000000D+00
   338  3.3700000000000D+00  0.0000000000000D+00  0.0000000000000D+00
   339  3.3800000000000D+00  0.0000000000000D+00  0.0000000000000D+00
   340  3.3900000000000D+00  0.0000000000000D+00  0.0000000000000D+00
   341  3.4000000000000D+00  0.0000000000000D+00  0.0000000000000D+00
   342  3.4100000000000D+00  0.0000000000000D+00  0.0000000000000D+00
   343  3.4200000000000D+00  0.0000000000000D+00  0.0000000000000D+00
   344  3.4300000000000D+00  0.0000000000000D+00  0.0000000000000D+00
   345  3.4400000000000D+00  0.0000000000000D+00  0.0000000000000D+00
   346  3.4500000000000D+00  0.0000000000000D+00  0.0000000000000D+00
   347  3.4600000000000D+00  0.0000000000000D+00  0.0000000000000D+00
   348  3.4700000000000D+00  0.0000000000000D+00  0.0000000000000D+00
   349  3.4800000000000D+00  0.0000000000000D+00  0.0000000000000D+00
   350  3.4900000000000D+00  0.0000000000000D+00  0.0000000000000D+00
   351  3.5000000000000D+00  0.0000000000000D+00  0.0000000000000D+00
   352  3.5100000000000D+00  0.0000000000000D+00  0.0000000000000D+00
   353  3.5200000000000D+00  0.0000000000000D+00  0.0000000000000D+00
   354  3.5300000000000D+00  0.0000000000000D+00  0.0000000000000D+00
   355  3.5400000000000D+00  0.0000000000000D+00  0.0000000000000D+00
   356  3.5500000000000D+00  0.0000000000000D+00  0.0000000000000D+00
   357  3.5600000000000D+00  0.0000000000000D+00  0.0000000000000D+00
   358  3.5700000000000D+00  0.0000000000000D+00  0.0000000000000D+00
   359  3.5800000000000D+00  0.0000000000000D+00  0.0000000000000D+00
   360  3.5900000000000D+00  0.0000000000000D+00  0.0000000000000D+00
   361  3.6000000000000D+00  0.0000000000000D+00  0.0000000000000D+00
   362  3.6100000000000D+00  0.0000000000000D+00  0.0000000000000D+00
   363  3.6200000000000D+00  0.0000000000000D+00  0.0000000000000D+00
   364  3.6300000000000D+00  0.0000000000000D+00  0.0000000000000D+00
   365  3.6400000000000D+00  0.0000000000000D+00  0.0000000000000D+00
   366  3.6500000000000D+00  0.0000000000000D+00  0.0000000000000D+00
   367  3.6600000000000D+00  0.0000000000000D+00  0.0000000000000D+00
   368  3.6700000000000D+00  0.0000000000000D+00  0.0000000000000D+00
   369  3.6800000000000D+00  0.0000000000000D+00  0.0000000000000D+00
   370  3.6900000000000D+00  0.0000000000000D+00  0.0000000000000D+00
   371  3.7000000000000D+00  0.0000000000000D+00  0.0000000000000D+00
   372  3.7100000000000D+00  0.0000000000000D+00  0.0000000000000D+00
   373  3.7200000000000D+00  0.0000000000000D+00  0.0000000000000D+00
   374  3.7300000000000D+00  0.0000000000000D+00  0.0000000000000D+00
   375  3.7400000000000D+00  0.0000000000000D+00  0.0000000000000D+00
   376  3.7500000000000D+00  0.0000000000000D+00  0.0000000000000D+00
   377  3.7600000000000D+00  0.0000000000000D+00  0.0000000000000D+00
   378  3.7700000000000D+00  0.0000000000000D+00  0.0000000000000D+00
   379  3.7800000000000D+00  0.0000000000000D+00  0.0000000000000D+00
   380  3.7900000000000D+00  0.0000000000000D+00  0.0000000000000D+00
   381  3.8000000000000D+00  0.0000000000000D+00  0.0000000000000D+00
   382  3.8100000000000D+00  0.0000000000000D+00  0.0000000000000D+00
   383  3.8200000000000D+00  0.0000000000000D+00  0.0000000000000D+00
   384  3.8300000000000D+00  0.0000000000000D+00  0.0000000000000D+00
   385  3.8400000000000D+00  0.0000000000000D+00  0.0000000000000D+00
   386  3.8500000000000D+00  0.0000000000000D+00  0.0000000000000D+00
   387  3.8600000000000D+00  0.0000000000000D+00  0.0000000000000D+00
   388  3.8700000000000D+00  0.0000000000000D+00  0.0000000000000D+00
   389  3.8800000000000D+00  0.0000000000000D+00  0.0000000000000D+00
   390  3.8900000000000D+00  0.0000000000000D+00  0.0000000000000D+00
   391  3.9000000000000D+00  0.0000000000000D+00  0.0000000000000D+00
   392  3.9100000000000D+00  0.0000000000000D+00  0.0000000000000D+00
   393  3.9200000000000D+00  0.0000000000000D+00  0.0000000000000D+00
   394  3.9300000000000D+00  0.0000000000000D+00  0.0000000000000D+00
   395  3.9400000000000D+00  0.0000000000000D+00  0.0000000000000D+00
   396  3.9500000000000D+00  0.0000000000000D+00  0.0000000000000D+00
   397  3.9600000000000D+00  0.0000000000000D+00  0.0000000000000D+00
   398  3.9700000000000D+00  0.0000000000000D+00  0.0000000000000D+00
   399  3.9800000000000D+00  0.0000000000000D+00  0.0000000000000D+00
   400  3.9900000000000D+00  0.0000000000000D+00  0.0000000000000D+00
   401  4.0000000000000D+00  0.0000000000000D+00  0.0000000000000D+00
   402  4.0100000000000D+00  0.0000000000000D+00  0.0000000000000D+00
   403  4.0200000000000D+00  0.0000000000000D+00  0.0000000000000D+00
   404  4.0300000000000D+00  0.0000000000000D+00  0.0000000000000D+00
   405  4.0400000000000D+00  0.0000000000000D+00  0.0000000000000D+00
   406  4.0500000000000D+00  0.0000000000000D+00  0.0000000000000D+00
   407  4.0600000000000D+00  0.0000000000000D+00  0.0000000000000D+00
   408  4.0700000000000D+00  0.0000000000000D+00  0.0000000000000D+00
   409  4.0800000000000D+00  0.0000000000000D+00  0.0000000000000D+00
   410  4.0900000000000D+00  0.0000000000000D+00  0.0000000000000D+00
   411  4.1000000000000D+00  0.0000000000000D+00  0.0000000000000D+00
   412  4.1100000000000D+00  0.0000000000000D+00  0.0000000000000D+00
   413  4.1200000000000D+00  0.0000000000000D+00  0.0000000000000D+00
   414  4.1300000000000D+00  0.0000000000000D+00  0.0000000000000D+00
   415  4.1400000000000D+00  0.0000000000000D+00  0.0000000000000D+00
   416  4.1500000000000D+00  0.0000000000000D+00  0.0000000000000D+00
   417  4.1600000000000D+00  0.0000000000000D+00  0.0000000000000D+00
   418  4.1700000000000D+00  0.0000000000000D+00  0.0000000000000D+00
   419  4.1800000000000D+00  0.0000000000000D+00  0.0000000000000D+00
   420  4.1900000000000D+00  0.0000000000000D+00  0.0000000000000D+00
   421  4.2000000000000D+00  0.0000000000000D+00  0.0000000000000D+00
   422  4.2100000000000D+00  0.0000000000000D+00  0.0000000000000D+00