Lu    ONCVPSP-3.3.0  r_core=   1.56315   1.60089   1.45518   1.86943
     71.0000     25.0000      220117    zatom,zion,pspd
     8      11   3     4   600     0    pspcod,pspxc,lmax,lloc,mmax,r2well
  5.99000000  0.00000000  0.00000000    rchrg fchrg qchrg
     2     2     2     2     0    nproj
     1     1           extension_switch
   0                         1.2890684951957D+01  1.3337648492017D+00
     1  0.0000000000000D+00 -1.2336731636253D-10  6.4327213000759D-10
     2  1.0000000000000D-02  4.7262389377005D-02 -2.0616615968334D-02
     3  2.0000000000000D-02  9.4483052400282D-02 -4.1142939276155D-02
     4  3.0000000000000D-02  1.4162031364171D-01 -6.1489486306329D-02
     5  4.0000000000000D-02  1.8863259788980D-01 -8.1568379507618D-02
     6  5.0000000000000D-02  2.3547847620356D-01 -1.0129412054130D-01
     7  6.0000000000000D-02  2.8211670718990D-01 -1.2058432802637D-01
     8  7.0000000000000D-02  3.2850627205952D-01 -1.3936042884729D-01
     9  8.0000000000000D-02  3.7460640213946D-01 -1.5754829263164D-01
    10  9.0000000000000D-02  4.2037659767169D-01 -1.7507879979455D-01
    11  1.0000000000000D-01  4.6577663690367D-01 -1.9188833447313D-01
    12  1.1000000000000D-01  5.1076657467668D-01 -2.0791919472570D-01
    13  1.2000000000000D-01  5.5530672993772D-01 -2.2311991353506D-01
    14  1.3000000000000D-01  5.9935766183844D-01 -2.3744548541753D-01
    15  1.4000000000000D-01  6.4288013433552D-01 -2.5085749478499D-01
    16  1.5000000000000D-01  6.8583506946886D-01 -2.6332414361888D-01
    17  1.6000000000000D-01  7.2818348976156D-01 -2.7482017747484D-01
    18  1.7000000000000D-01  7.6988645045681D-01 -2.8532671032713D-01
    19  1.8000000000000D-01  8.1090496257531D-01 -2.9483095026293D-01
    20  1.9000000000000D-01  8.5119990804058D-01 -3.0332582952940D-01
    21  2.0000000000000D-01  8.9073194837292D-01 -3.1080954390228D-01
    22  2.1000000000000D-01  9.2946142869253D-01 -3.1728500776190D-01
    23  2.2000000000000D-01  9.6734827899391D-01 -3.2275923261527D-01
    24  2.3000000000000D-01  1.0043519148538D+00 -3.2724263806941D-01
    25  2.4000000000000D-01  1.0404311399095D+00 -3.3074830542604D-01
    26  2.5000000000000D-01  1.0755440525893D+00 -3.3329118511266D-01
    27  2.6000000000000D-01  1.1096479596920D+00 -3.3488727007518D-01
    28  2.7000000000000D-01  1.1426992994894D+00 -3.3555274801823D-01
    29  2.8000000000000D-01  1.1746535770682D+00 -3.3530314597796D-01
    30  2.9000000000000D-01  1.2054653146305D+00 -3.3415248113843D-01
    31  3.0000000000000D-01  1.2350880194327D+00 -3.3211243204684D-01
    32  3.1000000000000D-01  1.2634741719627D+00 -3.2919154443843D-01
    33  3.2000000000000D-01  1.2905752368325D+00 -3.2539448574483D-01
    34  3.3000000000000D-01  1.3163416987001D+00 -3.2072136202559D-01
    35  3.4000000000000D-01  1.3407231253236D+00 -3.1516711053480D-01
    36  3.5000000000000D-01  1.3636682596095D+00 -3.0872098041231D-01
    37  3.6000000000000D-01  1.3851251422234D+00 -3.0136611307964D-01
    38  3.7000000000000D-01  1.4050412660156D+00 -2.9307923283022D-01
    39  3.8000000000000D-01  1.4233637631525D+00 -2.8383045684267D-01
    40  3.9000000000000D-01  1.4400396254579D+00 -2.7358323242634D-01
    41  4.0000000000000D-01  1.4550159580590D+00 -2.6229440774558D-01
    42  4.1000000000000D-01  1.4682402659876D+00 -2.4991444057837D-01
    43  4.2000000000000D-01  1.4796607729434D+00 -2.3638774786716D-01
    44  4.3000000000000D-01  1.4892267709507D+00 -2.2165319693330D-01
    45  4.4000000000000D-01  1.4968889991750D+00 -2.0564473727432D-01
    46  4.5000000000000D-01  1.5026000496889D+00 -1.8829216987054D-01
    47  4.6000000000000D-01  1.5063147975073D+00 -1.6952204891573D-01
    48  4.7000000000000D-01  1.5079908517589D+00 -1.4925870888466D-01
    49  4.8000000000000D-01  1.5075890244168D+00 -1.2742540788167D-01
    50  4.9000000000000D-01  1.5050738125989D+00 -1.0394557630747D-01
    51  5.0000000000000D-01  1.5004138900608D+00 -7.8744158060324D-02
    52  5.1000000000000D-01  1.4935826031545D+00 -5.1749029780609D-02
    53  5.2000000000000D-01  1.4845584662194D+00 -2.2892482077348D-02
    54  5.3000000000000D-01  1.4733256511078D+00  7.8872547334276D-03
    55  5.4000000000000D-01  1.4598744653427D+00  4.0644459071814D-02
    56  5.5000000000000D-01  1.4442018132491D+00  7.5424360433003D-02
    57  5.6000000000000D-01  1.4263116343120D+00  1.1226159613133D-01
    58  5.7000000000000D-01  1.4062153129842D+00  1.5117870351575D-01
    59  5.8000000000000D-01  1.3839320542083D+00  1.9218466902620D-01
    60  5.9000000000000D-01  1.3594892190240D+00  2.3527355550032D-01
    61  6.0000000000000D-01  1.3329226148106D+00  2.8042322890603D-01
    62  6.1000000000000D-01  1.3042767349599D+00  3.2759420517015D-01
    63  6.2000000000000D-01  1.2736049430963D+00  3.7672863698586D-01
    64  6.3000000000000D-01  1.2409695973421D+00  4.2774945942317D-01
    65  6.4000000000000D-01  1.2064421105789D+00  4.8055971184250D-01
    66  6.5000000000000D-01  1.1701029431714D+00  5.3504205201972D-01
    67  6.6000000000000D-01  1.1320415251883D+00  5.9105847656600D-01
    68  6.7000000000000D-01  1.0923561057847D+00  6.4845025966626D-01
    69  6.8000000000000D-01  1.0511535280807D+00  7.0703811988897D-01
    70  6.9000000000000D-01  1.0085489285895D+00  7.6662262236790D-01
    71  7.0000000000000D-01  9.6466536099195D-01  8.2698482105392D-01
    72  7.1000000000000D-01  9.1963334483657D-01  8.8788714297984D-01
    73  7.2000000000000D-01  8.7359034053110D-01  9.4907451364899D-01
    74  7.3000000000000D-01  8.2668015279890D-01  1.0102757197496D+00
    75  7.4000000000000D-01  7.7905226557450D-01  1.0712050024537D+00
    76  7.5000000000000D-01  7.3086111210346D-01  1.1315638716384D+00
    77  7.6000000000000D-01  6.8226528479110D-01  1.1910431284568D+00
    78  7.7000000000000D-01  6.3342669008679D-01  1.2493250808831D+00
    79  7.8000000000000D-01  5.8450965440019D-01  1.3060859341532D+00
    80  7.9000000000000D-01  5.3567998770715D-01  1.3609983354712D+00
    81  8.0000000000000D-01  4.8710401210819D-01  1.4137340499896D+00
    82  8.1000000000000D-01  4.3894756314399D-01  1.4639667429266D+00
    83  8.2000000000000D-01  3.9137497214158D-01  1.5113748407871D+00
    84  8.3000000000000D-01  3.4454803825549D-01  1.5556444430406D+00
    85  8.4000000000000D-01  2.9862499917312D-01  1.5964722542952D+00
    86  8.5000000000000D-01  2.5375950966821D-01  1.6335685060226D+00
    87  8.6000000000000D-01  2.1009963730609D-01  1.6666598362501D+00
    88  8.7000000000000D-01  1.6778688462576D-01  1.6954920953525D+00
    89  8.8000000000000D-01  1.2695524704494D-01  1.7198330461683D+00
    90  8.9000000000000D-01  8.7730315554313D-02  1.7394749271289D+00
    91  9.0000000000000D-01  5.0228432985867D-02  1.7542368479305D+00
    92  9.1000000000000D-01  1.4555912259619D-02  1.7639669884903D+00
    93  9.2000000000000D-01 -1.9191675464213D-02  1.7685445735096D+00
    94  9.3000000000000D-01 -5.0930135370812D-02  1.7678815968918D+00
    95  9.4000000000000D-01 -8.0587199614952D-02  1.7619242725235D+00
    96  9.5000000000000D-01 -1.0810298802341D-01  1.7506541904993D+00
    97  9.6000000000000D-01 -1.3343037372792D-01  1.7340891607213D+00
    98  9.7000000000000D-01 -1.5653524945875D-01  1.7122837289106D+00
    99  9.8000000000000D-01 -1.7739669115942D-01  1.6853293533773D+00
   100  9.9000000000000D-01 -1.9600701658309D-01  1.6533542344708D+00
   101  1.0000000000000D+00 -2.1237173749449D-01  1.6165227920892D+00
   102  1.0100000000000D+00 -2.2650940520317D-01  1.5750347905952D+00
   103  1.0200000000000D+00 -2.3845135015654D-01  1.5291241141049D+00
   104  1.0300000000000D+00 -2.4824131738589D-01  1.4790571989672D+00
   105  1.0400000000000D+00 -2.5593500062475D-01  1.4251311339726D+00
   106  1.0500000000000D+00 -2.6159947895961D-01  1.3676714426005D+00
   107  1.0600000000000D+00 -2.6531256076446D-01  1.3070295648525D+00
   108  1.0700000000000D+00 -2.6716204068776D-01  1.2435800599085D+00
   109  1.0800000000000D+00 -2.6724487626093D-01  1.1777175537452D+00
   110  1.0900000000000D+00 -2.6566629149550D-01  1.1098534587450D+00
   111  1.1000000000000D+00 -2.6253881557527D-01  1.0404124949912D+00
   112  1.1100000000000D+00 -2.5798126527308D-01  9.6982904482504D-01
   113  1.1200000000000D+00 -2.5211768037168D-01  8.9854337456427D-01
   114  1.1300000000000D+00 -2.4507622168053D-01  8.2699775837350D-01
   115  1.1400000000000D+00 -2.3698804157578D-01  7.5563254043024D-01
   116  1.1500000000000D+00 -2.2798613716084D-01  6.8488217209473D-01
   117  1.1600000000000D+00 -2.1820419625391D-01  6.1517126108452D-01
   118  1.1700000000000D+00 -2.0777544632957D-01  5.4691066927837D-01
   119  1.1800000000000D+00 -1.9683151630241D-01  4.8049369476337D-01
   120  1.1900000000000D+00 -1.8550132095376D-01  4.1629237335961D-01
   121  1.2000000000000D+00 -1.7390997719870D-01  3.5465393244225D-01
   122  1.2100000000000D+00 -1.6217776091853D-01  2.9589742804154D-01
   123  1.2200000000000D+00 -1.5041911258164D-01  2.4031059422874D-01
   124  1.2300000000000D+00 -1.3874169915650D-01  1.8814693099305D-01
   125  1.2400000000000D+00 -1.2724553882121D-01  1.3962305295623D-01
   126  1.2500000000000D+00 -1.1602219425038D-01  9.4916318487569D-02
   127  1.2600000000000D+00 -1.0515403962270D-01  5.4162756315003D-02
   128  1.2700000000000D+00 -9.4713602954897D-02  1.7455290581731D-02
   129  1.2800000000000D+00 -8.4762990698497D-02 -1.5157703845052D-02
   130  1.2900000000000D+00 -7.5353415999272D-02 -4.3673423679191D-02
   131  1.3000000000000D+00 -6.6524794070380D-02 -6.8135393255035D-02
   132  1.3100000000000D+00 -5.8305141278479D-02 -8.8635391780891D-02
   133  1.3200000000000D+00 -5.0711422393107D-02 -1.0530787517741D-01
   134  1.3300000000000D+00 -4.3750787383925D-02 -1.1832280009667D-01
   135  1.3400000000000D+00 -3.7422260798636D-02 -1.2787686093695D-01
   136  1.3500000000000D+00 -3.1717479246724D-02 -1.3418996669693D-01
   137  1.3600000000000D+00 -2.6621076073631D-02 -1.3750383641124D-01
   138  1.3700000000000D+00 -2.2111443372539D-02 -1.3807860358912D-01
   139  1.3800000000000D+00 -1.8161428049776D-02 -1.3618990577960D-01
   140  1.3900000000000D+00 -1.4739105762681D-02 -1.3212563530739D-01
   141  1.4000000000000D+00 -1.1808582398533D-02 -1.2618261542607D-01
   142  1.4100000000000D+00 -9.3308239593134D-03 -1.1866318096115D-01
   143  1.4200000000000D+00 -7.2645040855036D-03 -1.0987170738385D-01
   144  1.4300000000000D+00 -5.5668588797089D-03 -1.0011112792444D-01
   145  1.4400000000000D+00 -4.1945396897782D-03 -8.9679474414996D-02
   146  1.4500000000000D+00 -3.1044528040053D-03 -7.8866484606737D-02
   147  1.4600000000000D+00 -2.2545774228541D-03 -6.7950308738674D-02
   148  1.4700000000000D+00 -1.6047533846502D-03 -5.7194346920911D-02
   149  1.4800000000000D+00 -1.1174269165450D-03 -4.6844264265888D-02
   150  1.4900000000000D+00 -7.5834553026254D-04 -3.7125218302716D-02
   151  1.5000000000000D+00 -4.9719732046240D-04 -2.8239313415595D-02
   152  1.5100000000000D+00 -3.0818874087615D-04 -2.0364946174236D-02
   153  1.5200000000000D+00 -1.7054493097390D-04 -1.3652048122464D-02
   154  1.5300000000000D+00 -6.9356790017860D-05 -8.1896361510579D-03
   155  1.5400000000000D+00  5.5847112119032D-06 -4.1113552519383D-03
   156  1.5500000000000D+00  6.2098739144537D-05 -1.5947366301383D-03
   157  1.5600000000000D+00  8.7936130184746D-05 -4.2432099509478D-04
   158  1.5700000000000D+00  5.9719710373497D-05 -3.8709525280080D-05
   159  1.5800000000000D+00  8.1052401511055D-06  5.3017630996462D-06
   160  1.5900000000000D+00 -1.0075046629607D-05 -1.2352521198016D-05
   161  1.6000000000000D+00 -1.1663529330790D-06 -1.9056711559369D-06
   162  1.6100000000000D+00  2.2140261070832D-06  1.1229558314358D-06
   163  1.6200000000000D+00  3.2667624790057D-08  2.2640863748645D-08
   164  1.6300000000000D+00 -2.4322387424168D-07  7.0120251648315D-07
   165  1.6400000000000D+00  0.0000000000000D+00  0.0000000000000D+00
   166  1.6500000000000D+00  0.0000000000000D+00  0.0000000000000D+00
   167  1.6600000000000D+00  0.0000000000000D+00  0.0000000000000D+00
   168  1.6700000000000D+00  0.0000000000000D+00  0.0000000000000D+00
   169  1.6800000000000D+00  0.0000000000000D+00  0.0000000000000D+00
   170  1.6900000000000D+00  0.0000000000000D+00  0.0000000000000D+00
   171  1.7000000000000D+00  0.0000000000000D+00  0.0000000000000D+00
   172  1.7100000000000D+00  0.0000000000000D+00  0.0000000000000D+00
   173  1.7200000000000D+00  0.0000000000000D+00  0.0000000000000D+00
   174  1.7300000000000D+00  0.0000000000000D+00  0.0000000000000D+00
   175  1.7400000000000D+00  0.0000000000000D+00  0.0000000000000D+00
   176  1.7500000000000D+00  0.0000000000000D+00  0.0000000000000D+00
   177  1.7600000000000D+00  0.0000000000000D+00  0.0000000000000D+00
   178  1.7700000000000D+00  0.0000000000000D+00  0.0000000000000D+00
   179  1.7800000000000D+00  0.0000000000000D+00  0.0000000000000D+00
   180  1.7900000000000D+00  0.0000000000000D+00  0.0000000000000D+00
   181  1.8000000000000D+00  0.0000000000000D+00  0.0000000000000D+00
   182  1.8100000000000D+00  0.0000000000000D+00  0.0000000000000D+00
   183  1.8200000000000D+00  0.0000000000000D+00  0.0000000000000D+00
   184  1.8300000000000D+00  0.0000000000000D+00  0.0000000000000D+00
   185  1.8400000000000D+00  0.0000000000000D+00  0.0000000000000D+00
   186  1.8500000000000D+00  0.0000000000000D+00  0.0000000000000D+00
   187  1.8600000000000D+00  0.0000000000000D+00  0.0000000000000D+00
   188  1.8700000000000D+00  0.0000000000000D+00  0.0000000000000D+00
   189  1.8800000000000D+00  0.0000000000000D+00  0.0000000000000D+00
   190  1.8900000000000D+00  0.0000000000000D+00  0.0000000000000D+00
   191  1.9000000000000D+00  0.0000000000000D+00  0.0000000000000D+00
   192  1.9100000000000D+00  0.0000000000000D+00  0.0000000000000D+00
   193  1.9200000000000D+00  0.0000000000000D+00  0.0000000000000D+00
   194  1.9300000000000D+00  0.0000000000000D+00  0.0000000000000D+00
   195  1.9400000000000D+00  0.0000000000000D+00  0.0000000000000D+00
   196  1.9500000000000D+00  0.0000000000000D+00  0.0000000000000D+00
   197  1.9600000000000D+00  0.0000000000000D+00  0.0000000000000D+00
   198  1.9700000000000D+00  0.0000000000000D+00  0.0000000000000D+00
   199  1.9800000000000D+00  0.0000000000000D+00  0.0000000000000D+00
   200  1.9900000000000D+00  0.0000000000000D+00  0.0000000000000D+00
   201  2.0000000000000D+00  0.0000000000000D+00  0.0000000000000D+00
   202  2.0100000000000D+00  0.0000000000000D+00  0.0000000000000D+00
   203  2.0200000000000D+00  0.0000000000000D+00  0.0000000000000D+00
   204  2.0300000000000D+00  0.0000000000000D+00  0.0000000000000D+00
   205  2.0400000000000D+00  0.0000000000000D+00  0.0000000000000D+00
   206  2.0500000000000D+00  0.0000000000000D+00  0.0000000000000D+00
   207  2.0600000000000D+00  0.0000000000000D+00  0.0000000000000D+00
   208  2.0700000000000D+00  0.0000000000000D+00  0.0000000000000D+00
   209  2.0800000000000D+00  0.0000000000000D+00  0.0000000000000D+00
   210  2.0900000000000D+00  0.0000000000000D+00  0.0000000000000D+00
   211  2.1000000000000D+00  0.0000000000000D+00  0.0000000000000D+00
   212  2.1100000000000D+00  0.0000000000000D+00  0.0000000000000D+00
   213  2.1200000000000D+00  0.0000000000000D+00  0.0000000000000D+00
   214  2.1300000000000D+00  0.0000000000000D+00  0.0000000000000D+00
   215  2.1400000000000D+00  0.0000000000000D+00  0.0000000000000D+00
   216  2.1500000000000D+00  0.0000000000000D+00  0.0000000000000D+00
   217  2.1600000000000D+00  0.0000000000000D+00  0.0000000000000D+00
   218  2.1700000000000D+00  0.0000000000000D+00  0.0000000000000D+00
   219  2.1800000000000D+00  0.0000000000000D+00  0.0000000000000D+00
   220  2.1900000000000D+00  0.0000000000000D+00  0.0000000000000D+00
   221  2.2000000000000D+00  0.0000000000000D+00  0.0000000000000D+00
   222  2.2100000000000D+00  0.0000000000000D+00  0.0000000000000D+00
   223  2.2200000000000D+00  0.0000000000000D+00  0.0000000000000D+00
   224  2.2300000000000D+00  0.0000000000000D+00  0.0000000000000D+00
   225  2.2400000000000D+00  0.0000000000000D+00  0.0000000000000D+00
   226  2.2500000000000D+00  0.0000000000000D+00  0.0000000000000D+00
   227  2.2600000000000D+00  0.0000000000000D+00  0.0000000000000D+00
   228  2.2700000000000D+00  0.0000000000000D+00  0.0000000000000D+00
   229  2.2800000000000D+00  0.0000000000000D+00  0.0000000000000D+00
   230  2.2900000000000D+00  0.0000000000000D+00  0.0000000000000D+00
   231  2.3000000000000D+00  0.0000000000000D+00  0.0000000000000D+00
   232  2.3100000000000D+00  0.0000000000000D+00  0.0000000000000D+00
   233  2.3200000000000D+00  0.0000000000000D+00  0.0000000000000D+00
   234  2.3300000000000D+00  0.0000000000000D+00  0.0000000000000D+00
   235  2.3400000000000D+00  0.0000000000000D+00  0.0000000000000D+00
   236  2.3500000000000D+00  0.0000000000000D+00  0.0000000000000D+00
   237  2.3600000000000D+00  0.0000000000000D+00  0.0000000000000D+00
   238  2.3700000000000D+00  0.0000000000000D+00  0.0000000000000D+00
   239  2.3800000000000D+00  0.0000000000000D+00  0.0000000000000D+00
   240  2.3900000000000D+00  0.0000000000000D+00  0.0000000000000D+00
   241  2.4000000000000D+00  0.0000000000000D+00  0.0000000000000D+00
   242  2.4100000000000D+00  0.0000000000000D+00  0.0000000000000D+00
   243  2.4200000000000D+00  0.0000000000000D+00  0.0000000000000D+00
   244  2.4300000000000D+00  0.0000000000000D+00  0.0000000000000D+00
   245  2.4400000000000D+00  0.0000000000000D+00  0.0000000000000D+00
   246  2.4500000000000D+00  0.0000000000000D+00  0.0000000000000D+00
   247  2.4600000000000D+00  0.0000000000000D+00  0.0000000000000D+00
   248  2.4700000000000D+00  0.0000000000000D+00  0.0000000000000D+00
   249  2.4800000000000D+00  0.0000000000000D+00  0.0000000000000D+00
   250  2.4900000000000D+00  0.0000000000000D+00  0.0000000000000D+00
   251  2.5000000000000D+00  0.0000000000000D+00  0.0000000000000D+00
   252  2.5100000000000D+00  0.0000000000000D+00  0.0000000000000D+00
   253  2.5200000000000D+00  0.0000000000000D+00  0.0000000000000D+00
   254  2.5300000000000D+00  0.0000000000000D+00  0.0000000000000D+00
   255  2.5400000000000D+00  0.0000000000000D+00  0.0000000000000D+00
   256  2.5500000000000D+00  0.0000000000000D+00  0.0000000000000D+00
   257  2.5600000000000D+00  0.0000000000000D+00  0.0000000000000D+00
   258  2.5700000000000D+00  0.0000000000000D+00  0.0000000000000D+00
   259  2.5800000000000D+00  0.0000000000000D+00  0.0000000000000D+00
   260  2.5900000000000D+00  0.0000000000000D+00  0.0000000000000D+00
   261  2.6000000000000D+00  0.0000000000000D+00  0.0000000000000D+00
   262  2.6100000000000D+00  0.0000000000000D+00  0.0000000000000D+00
   263  2.6200000000000D+00  0.0000000000000D+00  0.0000000000000D+00
   264  2.6300000000000D+00  0.0000000000000D+00  0.0000000000000D+00
   265  2.6400000000000D+00  0.0000000000000D+00  0.0000000000000D+00
   266  2.6500000000000D+00  0.0000000000000D+00  0.0000000000000D+00
   267  2.6600000000000D+00  0.0000000000000D+00  0.0000000000000D+00
   268  2.6700000000000D+00  0.0000000000000D+00  0.0000000000000D+00
   269  2.6800000000000D+00  0.0000000000000D+00  0.0000000000000D+00
   270  2.6900000000000D+00  0.0000000000000D+00  0.0000000000000D+00
   271  2.7000000000000D+00  0.0000000000000D+00  0.0000000000000D+00
   272  2.7100000000000D+00  0.0000000000000D+00  0.0000000000000D+00
   273  2.7200000000000D+00  0.0000000000000D+00  0.0000000000000D+00
   274  2.7300000000000D+00  0.0000000000000D+00  0.0000000000000D+00
   275  2.7400000000000D+00  0.0000000000000D+00  0.0000000000000D+00
   276  2.7500000000000D+00  0.0000000000000D+00  0.0000000000000D+00
   277  2.7600000000000D+00  0.0000000000000D+00  0.0000000000000D+00
   278  2.7700000000000D+00  0.0000000000000D+00  0.0000000000000D+00
   279  2.7800000000000D+00  0.0000000000000D+00  0.0000000000000D+00
   280  2.7900000000000D+00  0.0000000000000D+00  0.0000000000000D+00
   281  2.8000000000000D+00  0.0000000000000D+00  0.0000000000000D+00
   282  2.8100000000000D+00  0.0000000000000D+00  0.0000000000000D+00
   283  2.8200000000000D+00  0.0000000000000D+00  0.0000000000000D+00
   284  2.8300000000000D+00  0.0000000000000D+00  0.0000000000000D+00
   285  2.8400000000000D+00  0.0000000000000D+00  0.0000000000000D+00
   286  2.8500000000000D+00  0.0000000000000D+00  0.0000000000000D+00
   287  2.8600000000000D+00  0.0000000000000D+00  0.0000000000000D+00
   288  2.8700000000000D+00  0.0000000000000D+00  0.0000000000000D+00
   289  2.8800000000000D+00  0.0000000000000D+00  0.0000000000000D+00
   290  2.8900000000000D+00  0.0000000000000D+00  0.0000000000000D+00
   291  2.9000000000000D+00  0.0000000000000D+00  0.0000000000000D+00
   292  2.9100000000000D+00  0.0000000000000D+00  0.0000000000000D+00
   293  2.9200000000000D+00  0.0000000000000D+00  0.0000000000000D+00
   294  2.9300000000000D+00  0.0000000000000D+00  0.0000000000000D+00
   295  2.9400000000000D+00  0.0000000000000D+00  0.0000000000000D+00
   296  2.9500000000000D+00  0.0000000000000D+00  0.0000000000000D+00
   297  2.9600000000000D+00  0.0000000000000D+00  0.0000000000000D+00
   298  2.9700000000000D+00  0.0000000000000D+00  0.0000000000000D+00
   299  2.9800000000000D+00  0.0000000000000D+00  0.0000000000000D+00
   300  2.9900000000000D+00  0.0000000000000D+00  0.0000000000000D+00
   301  3.0000000000000D+00  0.0000000000000D+00  0.0000000000000D+00
   302  3.0100000000000D+00  0.0000000000000D+00  0.0000000000000D+00
   303  3.0200000000000D+00  0.0000000000000D+00  0.0000000000000D+00
   304  3.0300000000000D+00  0.0000000000000D+00  0.0000000000000D+00
   305  3.0400000000000D+00  0.0000000000000D+00  0.0000000000000D+00
   306  3.0500000000000D+00  0.0000000000000D+00  0.0000000000000D+00
   307  3.0600000000000D+00  0.0000000000000D+00  0.0000000000000D+00
   308  3.0700000000000D+00  0.0000000000000D+00  0.0000000000000D+00
   309  3.0800000000000D+00  0.0000000000000D+00  0.0000000000000D+00
   310  3.0900000000000D+00  0.0000000000000D+00  0.0000000000000D+00
   311  3.1000000000000D+00  0.0000000000000D+00  0.0000000000000D+00
   312  3.1100000000000D+00  0.0000000000000D+00  0.0000000000000D+00
   313  3.1200000000000D+00  0.0000000000000D+00  0.0000000000000D+00
   314  3.1300000000000D+00  0.0000000000000D+00  0.0000000000000D+00
   315  3.1400000000000D+00  0.0000000000000D+00  0.0000000000000D+00
   316  3.1500000000000D+00  0.0000000000000D+00  0.0000000000000D+00
   317  3.1600000000000D+00  0.0000000000000D+00  0.0000000000000D+00
   318  3.1700000000000D+00  0.0000000000000D+00  0.0000000000000D+00
   319  3.1800000000000D+00  0.0000000000000D+00  0.0000000000000D+00
   320  3.1900000000000D+00  0.0000000000000D+00  0.0000000000000D+00
   321  3.2000000000000D+00  0.0000000000000D+00  0.0000000000000D+00
   322  3.2100000000000D+00  0.0000000000000D+00  0.0000000000000D+00
   323  3.2200000000000D+00  0.0000000000000D+00  0.0000000000000D+00
   324  3.2300000000000D+00  0.0000000000000D+00  0.0000000000000D+00
   325  3.2400000000000D+00  0.0000000000000D+00  0.0000000000000D+00
   326  3.2500000000000D+00  0.0000000000000D+00  0.0000000000000D+00
   327  3.2600000000000D+00  0.0000000000000D+00  0.0000000000000D+00
   328  3.2700000000000D+00  0.0000000000000D+00  0.0000000000000D+00
   329  3.2800000000000D+00  0.0000000000000D+00  0.0000000000000D+00
   330  3.2900000000000D+00  0.0000000000000D+00  0.0000000000000D+00
   331  3.3000000000000D+00  0.0000000000000D+00  0.0000000000000D+00
   332  3.3100000000000D+00  0.0000000000000D+00  0.0000000000000D+00
   333  3.3200000000000D+00  0.0000000000000D+00  0.0000000000000D+00
   334  3.3300000000000D+00  0.0000000000000D+00  0.0000000000000D+00
   335  3.3400000000000D+00  0.0000000000000D+00  0.0000000000000D+00
   336  3.3500000000000D+00  0.0000000000000D+00  0.0000000000000D+00
   337  3.3600000000000D+00  0.0000000000000D+00  0.0000000000000D+00
   338  3.3700000000000D+00  0.0000000000000D+00  0.0000000000000D+00
   339  3.3800000000000D+00  0.0000000000000D+00  0.0000000000000D+00
   340  3.3900000000000D+00  0.0000000000000D+00  0.0000000000000D+00
   341  3.4000000000000D+00  0.0000000000000D+00  0.0000000000000D+00
   342  3.4100000000000D+00  0.0000000000000D+00  0.0000000000000D+00
   343  3.4200000000000D+00  0.0000000000000D+00  0.0000000000000D+00
   344  3.4300000000000D+00  0.0000000000000D+00  0.0000000000000D+00
   345  3.4400000000000D+00  0.0000000000000D+00  0.0000000000000D+00
   346  3.4500000000000D+00  0.0000000000000D+00  0.0000000000000D+00
   347  3.4600000000000D+00  0.0000000000000D+00  0.0000000000000D+00
   348  3.4700000000000D+00  0.0000000000000D+00  0.0000000000000D+00
   349  3.4800000000000D+00  0.0000000000000D+00  0.0000000000000D+00
   350  3.4900000000000D+00  0.0000000000000D+00  0.0000000000000D+00
   351  3.5000000000000D+00  0.0000000000000D+00  0.0000000000000D+00
   352  3.5100000000000D+00  0.0000000000000D+00  0.0000000000000D+00
   353  3.5200000000000D+00  0.0000000000000D+00  0.0000000000000D+00
   354  3.5300000000000D+00  0.0000000000000D+00  0.0000000000000D+00
   355  3.5400000000000D+00  0.0000000000000D+00  0.0000000000000D+00
   356  3.5500000000000D+00  0.0000000000000D+00  0.0000000000000D+00
   357  3.5600000000000D+00  0.0000000000000D+00  0.0000000000000D+00
   358  3.5700000000000D+00  0.0000000000000D+00  0.0000000000000D+00
   359  3.5800000000000D+00  0.0000000000000D+00  0.0000000000000D+00
   360  3.5900000000000D+00  0.0000000000000D+00  0.0000000000000D+00
   361  3.6000000000000D+00  0.0000000000000D+00  0.0000000000000D+00
   362  3.6100000000000D+00  0.0000000000000D+00  0.0000000000000D+00
   363  3.6200000000000D+00  0.0000000000000D+00  0.0000000000000D+00
   364  3.6300000000000D+00  0.0000000000000D+00  0.0000000000000D+00
   365  3.6400000000000D+00  0.0000000000000D+00  0.0000000000000D+00
   366  3.6500000000000D+00  0.0000000000000D+00  0.0000000000000D+00
   367  3.6600000000000D+00  0.0000000000000D+00  0.0000000000000D+00
   368  3.6700000000000D+00  0.0000000000000D+00  0.0000000000000D+00
   369  3.6800000000000D+00  0.0000000000000D+00  0.0000000000000D+00
   370  3.6900000000000D+00  0.0000000000000D+00  0.0000000000000D+00
   371  3.7000000000000D+00  0.0000000000000D+00  0.0000000000000D+00
   372  3.7100000000000D+00  0.0000000000000D+00  0.0000000000000D+00
   373  3.7200000000000D+00  0.0000000000000D+00  0.0000000000000D+00
   374  3.7300000000000D+00  0.0000000000000D+00  0.0000000000000D+00
   375  3.7400000000000D+00  0.0000000000000D+00  0.0000000000000D+00
   376  3.7500000000000D+00  0.0000000000000D+00  0.0000000000000D+00
   377  3.7600000000000D+00  0.0000000000000D+00  0.0000000000000D+00
   378  3.7700000000000D+00  0.0000000000000D+00  0.0000000000000D+00
   379  3.7800000000000D+00  0.0000000000000D+00  0.0000000000000D+00
   380  3.7900000000000D+00  0.0000000000000D+00  0.0000000000000D+00
   381  3.8000000000000D+00  0.0000000000000D+00  0.0000000000000D+00
   382  3.8100000000000D+00  0.0000000000000D+00  0.0000000000000D+00
   383  3.8200000000000D+00  0.0000000000000D+00  0.0000000000000D+00
   384  3.8300000000000D+00  0.0000000000000D+00  0.0000000000000D+00
   385  3.8400000000000D+00  0.0000000000000D+00  0.0000000000000D+00
   386  3.8500000000000D+00  0.0000000000000D+00  0.0000000000000D+00
   387  3.8600000000000D+00  0.0000000000000D+00  0.0000000000000D+00
   388  3.8700000000000D+00  0.0000000000000D+00  0.0000000000000D+00
   389  3.8800000000000D+00  0.0000000000000D+00  0.0000000000000D+00
   390  3.8900000000000D+00  0.0000000000000D+00  0.0000000000000D+00
   391  3.9000000000000D+00  0.0000000000000D+00  0.0000000000000D+00
   392  3.9100000000000D+00  0.0000000000000D+00  0.0000000000000D+00
   393  3.9200000000000D+00  0.0000000000000D+00  0.0000000000000D+00
   394  3.9300000000000D+00  0.0000000000000D+00  0.0000000000000D+00
   395  3.9400000000000D+00  0.0000000000000D+00  0.0000000000000D+00
   396  3.9500000000000D+00  0.0000000000000D+00  0.0000000000000D+00
   397  3.9600000000000D+00  0.0000000000000D+00  0.0000000000000D+00
   398  3.9700000000000D+00  0.0000000000000D+00  0.0000000000000D+00
   399  3.9800000000000D+00  0.0000000000000D+00  0.0000000000000D+00
   400  3.9900000000000D+00  0.0000000000000D+00  0.0000000000000D+00
   401  4.0000000000000D+00  0.0000000000000D+00  0.0000000000000D+00
   402  4.0100000000000D+00  0.0000000000000D+00  0.0000000000000D+00
   403  4.0200000000000D+00  0.0000000000000D+00  0.0000000000000D+00
   404  4.0300000000000D+00  0.0000000000000D+00  0.0000000000000D+00
   405  4.0400000000000D+00  0.0000000000000D+00  0.0000000000000D+00
   406  4.0500000000000D+00  0.0000000000000D+00  0.0000000000000D+00
   407  4.0600000000000D+00  0.0000000000000D+00  0.0000000000000D+00
   408  4.0700000000000D+00  0.0000000000000D+00  0.0000000000000D+00
   409  4.0800000000000D+00  0.0000000000000D+00  0.0000000000000D+00
   410  4.0900000000000D+00  0.0000000000000D+00  0.0000000000000D+00
   411  4.1000000000000D+00  0.0000000000000D+00  0.0000000000000D+00
   412  4.1100000000000D+00  0.0000000000000D+00  0.0000000000000D+00
   413  4.1200000000000D+00  0.0000000000000D+00  0.0000000000000D+00
   414  4.1300000000000D+00  0.0000000000000D+00  0.0000000000000D+00
   415  4.1400000000000D+00  0.0000000000000D+00  0.0000000000000D+00
   416  4.1500000000000D+00  0.0000000000000D+00  0.0000000000000D+00
   417  4.1600000000000D+00  0.0000000000000D+00  0.0000000000000D+00
   418  4.1700000000000D+00  0.0000000000000D+00  0.0000000000000D+00
   419  4.1800000000000D+00  0.0000000000000D+00  0.0000000000000D+00
   420  4.1900000000000D+00  0.0000000000000D+00  0.0000000000000D+00
   421  4.2000000000000D+00  0.0000000000000D+00  0.0000000000000D+00
   422  4.2100000000000D+00  0.0000000000000D+00  0.0000000000000D+00