Lu    ONCVPSP-3.3.0  r_core=   1.56315   1.60089   1.60089   2.67377
     71.0000     11.0000      220117    zatom,zion,pspd
     8      11   3     4   600     0    pspcod,pspxc,lmax,lloc,mmax,r2well
  5.99000000  0.00000000  0.00000000    rchrg fchrg qchrg
     2     2     2     2     0    nproj
     1     1           extension_switch
   0                         1.2236517213789D+01  9.4627349982353D-01
     1  0.0000000000000D+00 -3.1319596915935D-10  1.5068898628900D-09
     2  1.0000000000000D-02  5.8809125164477D-02 -3.1273288017608D-02
     3  2.0000000000000D-02  1.1750798486061D-01 -6.2321368393179D-02
     4  3.0000000000000D-02  1.7598686090049D-01 -9.2921364640169D-02
     5  4.0000000000000D-02  2.3413712349091D-01 -1.2285503250643D-01
     6  5.0000000000000D-02  2.9185176009591D-01 -1.5191100128872D-01
     7  6.0000000000000D-02  3.4902588612308D-01 -1.7988692646736D-01
     8  7.0000000000000D-02  4.0555723174717D-01 -2.0659152589279D-01
     9  8.0000000000000D-02  4.6134659949806D-01 -2.3184647326236D-01
    10  9.0000000000000D-02  5.1629828762397D-01 -2.5548812447444D-01
    11  1.0000000000000D-01  5.7032047469100D-01 -2.7736905461354D-01
    12  1.1000000000000D-01  6.2332556139006D-01 -2.9735938577879D-01
    13  1.2000000000000D-01  6.7523046608634D-01 -3.1534788868734D-01
    14  1.3000000000000D-01  7.2595687125710D-01 -3.3124284393075D-01
    15  1.4000000000000D-01  7.7543141861263D-01 -3.4497265189946D-01
    16  1.5000000000000D-01  8.2358585137526D-01 -3.5648618367762D-01
    17  1.6000000000000D-01  8.7035710289266D-01 -3.6575286860866D-01
    18  1.7000000000000D-01  9.1568733147589D-01 -3.7276251769594D-01
    19  1.8000000000000D-01  9.5952390207056D-01 -3.7752488549089D-01
    20  1.9000000000000D-01  1.0018193160808D+00 -3.8006897658719D-01
    21  2.0000000000000D-01  1.0425310913629D+00 -3.8044210624145D-01
    22  2.1000000000000D-01  1.0816215950774D+00 -3.7870872793318D-01
    23  2.2000000000000D-01  1.1190578327278D+00 -3.7494904381822D-01
    24  2.3000000000000D-01  1.1548111973105D+00 -3.6925741697967D-01
    25  2.4000000000000D-01  1.1888571830498D+00 -3.6174060709879D-01
    26  2.5000000000000D-01  1.2211750686788D+00 -3.5251585362120D-01
    27  2.6000000000000D-01  1.2517475756572D+00 -3.4170883264616D-01
    28  2.7000000000000D-01  1.2805605070682D+00 -3.2945151559143D-01
    29  2.8000000000000D-01  1.3076023732198D+00 -3.1587995915611D-01
    30  2.9000000000000D-01  1.3328640101771D+00 -3.0113205719826D-01
    31  3.0000000000000D-01  1.3563381975649D+00 -2.8534528584747D-01
    32  3.1000000000000D-01  1.3780192820200D+00 -2.6865447347033D-01
    33  3.2000000000000D-01  1.3979028126092D+00 -2.5118962699528D-01
    34  3.3000000000000D-01  1.4159851943961D+00 -2.3307384557814D-01
    35  3.4000000000000D-01  1.4322633661076D+00 -2.1442135165483D-01
    36  3.5000000000000D-01  1.4467345075428D+00 -1.9533566809291D-01
    37  3.6000000000000D-01  1.4593957819755D+00 -1.7590796842948D-01
    38  3.7000000000000D-01  1.4702441183355D+00 -1.5621562509163D-01
    39  3.8000000000000D-01  1.4792760374123D+00 -1.3632097805686D-01
    40  3.9000000000000D-01  1.4864875257261D+00 -1.1627034365462D-01
    41  4.0000000000000D-01  1.4918739600453D+00 -9.6093280168224D-02
    42  4.1000000000000D-01  1.4954300848227D+00 -7.5802123603755D-02
    43  4.2000000000000D-01  1.4971500440663D+00 -5.5391803489386D-02
    44  4.3000000000000D-01  1.4970274683805D+00 -3.4839944897868D-02
    45  4.4000000000000D-01  1.4950556171033D+00 -1.4107259089876D-02
    46  4.5000000000000D-01  1.4912275746480D+00  6.8617786938917D-03
    47  4.6000000000000D-01  1.4855364993383D+00  2.8137969662247D-02
    48  4.7000000000000D-01  1.4779759222126D+00  4.9806159371490D-02
    49  4.8000000000000D-01  1.4685400924839D+00  7.1963746143028D-02
    50  4.9000000000000D-01  1.4572243655798D+00  9.4718946735602D-02
    51  5.0000000000000D-01  1.4440256289652D+00  1.1818883952273D-01
    52  5.1000000000000D-01  1.4289427602836D+00  1.4249720872314D-01
    53  5.2000000000000D-01  1.4119771117399D+00  1.6777221627096D-01
    54  5.3000000000000D-01  1.3931330141073D+00  1.9414393064818D-01
    55  5.4000000000000D-01  1.3724182932796D+00  2.2174174439392D-01
    56  5.5000000000000D-01  1.3498447919064D+00  2.5069171402571D-01
    57  5.6000000000000D-01  1.3254288883617D+00  2.8111385771677D-01
    58  5.7000000000000D-01  1.2991920051034D+00  3.1311944725411D-01
    59  5.8000000000000D-01  1.2711610983857D+00  3.4680833152620D-01
    60  5.9000000000000D-01  1.2413691212969D+00  3.8226632904823D-01
    61  6.0000000000000D-01  1.2098554522082D+00  4.1956272680989D-01
    62  6.1000000000000D-01  1.1766662809366D+00  4.5874792203050D-01
    63  6.2000000000000D-01  1.1418549452495D+00  4.9985124222285D-01
    64  6.3000000000000D-01  1.1054822107593D+00  5.4287897731288D-01
    65  6.4000000000000D-01  1.0676164877798D+00  5.8781265545846D-01
    66  6.5000000000000D-01  1.0283339793316D+00  6.3460759165404D-01
    67  6.6000000000000D-01  9.8771875518554D-01  6.8319173526002D-01
    68  6.7000000000000D-01  9.4586274761228D-01  7.3346483925923D-01
    69  6.8000000000000D-01  9.0286566536431D-01  7.8529797035901D-01
    70  6.9000000000000D-01  8.5883482332932D-01  8.3853337507805D-01
    71  7.0000000000000D-01  8.1388488625815D-01  8.9298471273974D-01
    72  7.1000000000000D-01  7.6813752598332D-01  9.4843766183068D-01
    73  7.2000000000000D-01  7.2172099257636D-01  1.0046509016064D+00
    74  7.3000000000000D-01  6.7476960094537D-01  1.0613574661349D+00
    75  7.4000000000000D-01  6.2742313543208D-01  1.1182664632309D+00
    76  7.5000000000000D-01  5.7982617600906D-01  1.1750651460467D+00
    77  7.6000000000000D-01  5.3212735070850D-01  1.2314213204228D+00
    78  7.7000000000000D-01  4.8447851989725D-01  1.2869860666313D+00
    79  7.8000000000000D-01  4.3703389895476D-01  1.3413967498353D+00
    80  7.9000000000000D-01  3.8994912679000D-01  1.3942802895429D+00
    81  8.0000000000000D-01  3.4338028843997D-01  1.4452566545931D+00
    82  8.1000000000000D-01  2.9748290071631D-01  1.4939425468236D+00
    83  8.2000000000000D-01  2.5241087049598D-01  1.5399552335930D+00
    84  8.3000000000000D-01  2.0831543577895D-01  1.5829164867921D+00
    85  8.4000000000000D-01  1.6534410005195D-01  1.6224565839297D+00
    86  8.5000000000000D-01  1.2363957079513D-01  1.6582183253447D+00
    87  8.6000000000000D-01  8.3338713143898D-02  1.6898610206021D+00
    88  8.7000000000000D-01  4.4571529765774D-02  1.7170643967023D+00
    89  8.8000000000000D-01  7.4601779303806D-03  1.7395323808764D+00
    90  8.9000000000000D-01 -2.7881965461679D-02  1.7569967114661D+00
    91  9.0000000000000D-01 -6.1351180467631D-02  1.7692203316882D+00
    92  9.1000000000000D-01 -9.2854212355513D-02  1.7760005229632D+00
    93  9.2000000000000D-01 -1.2230900216131D-01  1.7771717369107D+00
    94  9.3000000000000D-01 -1.4964533090224D-01  1.7726080880814D+00
    95  9.4000000000000D-01 -1.7480536962117D-01  1.7622254729531D+00
    96  9.5000000000000D-01 -1.9774412836312D-01  1.7459832846494D+00
    97  9.6000000000000D-01 -2.1842979820377D-01  1.7238856971898D+00
    98  9.7000000000000D-01 -2.3684398155058D-01  1.6959824978047D+00
    99  9.8000000000000D-01 -2.5298180710351D-01  1.6623694508742D+00
   100  9.9000000000000D-01 -2.6685192711495D-01  1.6231881824712D+00
   101  1.0000000000000D+00 -2.7847639579456D-01  1.5786255797201D+00
   102  1.0100000000000D+00 -2.8789042908191D-01  1.5289127051706D+00
   103  1.0200000000000D+00 -2.9514204726216D-01  1.4743232318498D+00
   104  1.0300000000000D+00 -3.0029160322660D-01  1.4151714104474D+00
   105  1.0400000000000D+00 -3.0341120045713D-01  1.3518095856784D+00
   106  1.0500000000000D+00 -3.0458400610507D-01  1.2846252845261D+00
   107  1.0600000000000D+00 -3.0390346563829D-01  1.2140379039124D+00
   108  1.0700000000000D+00 -3.0147242678657D-01  1.1404950308598D+00
   109  1.0800000000000D+00 -2.9740218149820D-01  1.0644684325330D+00
   110  1.0900000000000D+00 -2.9181143559692D-01  9.8644975784803D-01
   111  1.1000000000000D+00 -2.8482521672532D-01  9.0694599628974D-01
   112  1.1100000000000D+00 -2.7657373179215D-01  8.2647474236078D-01
   113  1.1200000000000D+00 -2.6719118591324D-01  7.4555931749706D-01
   114  1.1300000000000D+00 -2.5681457519587D-01  6.6472380287319D-01
   115  1.1400000000000D+00 -2.4558246608857D-01  5.8448803816661D-01
   116  1.1500000000000D+00 -2.3363377419730D-01  5.0536264213940D-01
   117  1.1600000000000D+00 -2.2110655554530D-01  4.2784411123374D-01
   118  1.1700000000000D+00 -2.0813682310849D-01  3.5241005173239D-01
   119  1.1800000000000D+00 -1.9485740108942D-01  2.7951459939792D-01
   120  1.1900000000000D+00 -1.8139682925110D-01  2.0958407987773D-01
   121  1.2000000000000D+00 -1.6787832877477D-01  1.4301295935687D-01
   122  1.2100000000000D+00 -1.5441884045920D-01  8.0160132072272D-02
   123  1.2200000000000D+00 -1.4112814538328D-01  2.1345588212221D-02
   124  1.2300000000000D+00 -1.2810807716931D-01 -3.3152498644894D-02
   125  1.2400000000000D+00 -1.1545183363073D-01 -8.3100231410736D-02
   126  1.2500000000000D+00 -1.0324339460877D-01 -1.2830996789501D-01
   127  1.2600000000000D+00 -9.1557051938469D-02 -1.6864179278769D-01
   128  1.2700000000000D+00 -8.0457055237856D-02 -2.0400446824404D-01
   129  1.2800000000000D+00 -6.9997376344173D-02 -2.3435585196730D-01
   130  1.2900000000000D+00 -6.0221594427632D-02 -2.5970277520820D-01
   131  1.3000000000000D+00 -5.1162900819902D-02 -2.8010038640211D-01
   132  1.3100000000000D+00 -4.2844222279928D-02 -2.9565096755923D-01
   133  1.3200000000000D+00 -3.5278460300600D-02 -3.0650223549915D-01
   134  1.3300000000000D+00 -2.8468840899367D-02 -3.1284515405447D-01
   135  1.3400000000000D+00 -2.2409369891303D-02 -3.1491128089766D-01
   136  1.3500000000000D+00 -1.7085386569681D-02 -3.1296968185975D-01
   137  1.3600000000000D+00 -1.2474206466748D-02 -3.0732345558193D-01
   138  1.3700000000000D+00 -8.5458450482239D-03 -2.9830590611429D-01
   139  1.3800000000000D+00 -5.2638108111134D-03 -2.8627641607265D-01
   140  1.3900000000000D+00 -2.5859564729614D-03 -2.7161607194751D-01
   141  1.4000000000000D+00 -4.6537675762169D-04 -2.5472309402895D-01
   142  1.4100000000000D+00  1.1486611271104D-03 -2.3600813395858D-01
   143  1.4200000000000D+00  2.3097666595693D-03 -2.1588949604479D-01
   144  1.4300000000000D+00  3.0734691737476D-03 -1.9478834733161D-01
   145  1.4400000000000D+00  3.4962681864712D-03 -1.7312397596562D-01
   146  1.4500000000000D+00  3.6347053597478D-03 -1.5130916345868D-01
   147  1.4600000000000D+00  3.5444733139713D-03 -1.2974574055517D-01
   148  1.4700000000000D+00  3.2795599292831D-03 -1.0882031393701D-01
   149  1.4800000000000D+00  2.8915012648073D-03 -8.8900518238530D-02
   150  1.4900000000000D+00  2.4285558145694D-03 -7.0330876252221D-02
   151  1.5000000000000D+00  1.9351829804441D-03 -5.3430111260177D-02
   152  1.5100000000000D+00  1.4519882932169D-03 -3.8493159872581D-02
   153  1.5200000000000D+00  1.0137796033142D-03 -2.5777373537800D-02
   154  1.5300000000000D+00  6.4495405361658D-04 -1.5437849786617D-02
   155  1.5400000000000D+00  3.6898087441649D-04 -7.7191133354284D-03
   156  1.5500000000000D+00  2.1018941699528D-04 -2.9482601746566D-03
   157  1.5600000000000D+00  1.3583603410828D-04 -7.2977435332951D-04
   158  1.5700000000000D+00  7.0241249081046D-05 -2.6990982142917D-05
   159  1.5800000000000D+00  8.6019199669817D-06  1.6165957395885D-05
   160  1.5900000000000D+00 -1.0184023644474D-05 -3.0919599944085D-05
   161  1.6000000000000D+00 -1.1370007018228D-06 -4.4730209004974D-06
   162  1.6100000000000D+00  2.3783981753892D-06  3.8048418690533D-06
   163  1.6200000000000D+00  3.4557188808118D-08  6.7546218555515D-08
   164  1.6300000000000D+00 -3.3403321859535D-07  1.1310215632843D-06
   165  1.6400000000000D+00  0.0000000000000D+00  0.0000000000000D+00
   166  1.6500000000000D+00  0.0000000000000D+00  0.0000000000000D+00
   167  1.6600000000000D+00  0.0000000000000D+00  0.0000000000000D+00
   168  1.6700000000000D+00  0.0000000000000D+00  0.0000000000000D+00
   169  1.6800000000000D+00  0.0000000000000D+00  0.0000000000000D+00
   170  1.6900000000000D+00  0.0000000000000D+00  0.0000000000000D+00
   171  1.7000000000000D+00  0.0000000000000D+00  0.0000000000000D+00
   172  1.7100000000000D+00  0.0000000000000D+00  0.0000000000000D+00
   173  1.7200000000000D+00  0.0000000000000D+00  0.0000000000000D+00
   174  1.7300000000000D+00  0.0000000000000D+00  0.0000000000000D+00
   175  1.7400000000000D+00  0.0000000000000D+00  0.0000000000000D+00
   176  1.7500000000000D+00  0.0000000000000D+00  0.0000000000000D+00
   177  1.7600000000000D+00  0.0000000000000D+00  0.0000000000000D+00
   178  1.7700000000000D+00  0.0000000000000D+00  0.0000000000000D+00
   179  1.7800000000000D+00  0.0000000000000D+00  0.0000000000000D+00
   180  1.7900000000000D+00  0.0000000000000D+00  0.0000000000000D+00
   181  1.8000000000000D+00  0.0000000000000D+00  0.0000000000000D+00
   182  1.8100000000000D+00  0.0000000000000D+00  0.0000000000000D+00
   183  1.8200000000000D+00  0.0000000000000D+00  0.0000000000000D+00
   184  1.8300000000000D+00  0.0000000000000D+00  0.0000000000000D+00
   185  1.8400000000000D+00  0.0000000000000D+00  0.0000000000000D+00
   186  1.8500000000000D+00  0.0000000000000D+00  0.0000000000000D+00
   187  1.8600000000000D+00  0.0000000000000D+00  0.0000000000000D+00
   188  1.8700000000000D+00  0.0000000000000D+00  0.0000000000000D+00
   189  1.8800000000000D+00  0.0000000000000D+00  0.0000000000000D+00
   190  1.8900000000000D+00  0.0000000000000D+00  0.0000000000000D+00
   191  1.9000000000000D+00  0.0000000000000D+00  0.0000000000000D+00
   192  1.9100000000000D+00  0.0000000000000D+00  0.0000000000000D+00
   193  1.9200000000000D+00  0.0000000000000D+00  0.0000000000000D+00
   194  1.9300000000000D+00  0.0000000000000D+00  0.0000000000000D+00
   195  1.9400000000000D+00  0.0000000000000D+00  0.0000000000000D+00
   196  1.9500000000000D+00  0.0000000000000D+00  0.0000000000000D+00
   197  1.9600000000000D+00  0.0000000000000D+00  0.0000000000000D+00
   198  1.9700000000000D+00  0.0000000000000D+00  0.0000000000000D+00
   199  1.9800000000000D+00  0.0000000000000D+00  0.0000000000000D+00
   200  1.9900000000000D+00  0.0000000000000D+00  0.0000000000000D+00
   201  2.0000000000000D+00  0.0000000000000D+00  0.0000000000000D+00
   202  2.0100000000000D+00  0.0000000000000D+00  0.0000000000000D+00
   203  2.0200000000000D+00  0.0000000000000D+00  0.0000000000000D+00
   204  2.0300000000000D+00  0.0000000000000D+00  0.0000000000000D+00
   205  2.0400000000000D+00  0.0000000000000D+00  0.0000000000000D+00
   206  2.0500000000000D+00  0.0000000000000D+00  0.0000000000000D+00
   207  2.0600000000000D+00  0.0000000000000D+00  0.0000000000000D+00
   208  2.0700000000000D+00  0.0000000000000D+00  0.0000000000000D+00
   209  2.0800000000000D+00  0.0000000000000D+00  0.0000000000000D+00
   210  2.0900000000000D+00  0.0000000000000D+00  0.0000000000000D+00
   211  2.1000000000000D+00  0.0000000000000D+00  0.0000000000000D+00
   212  2.1100000000000D+00  0.0000000000000D+00  0.0000000000000D+00
   213  2.1200000000000D+00  0.0000000000000D+00  0.0000000000000D+00
   214  2.1300000000000D+00  0.0000000000000D+00  0.0000000000000D+00
   215  2.1400000000000D+00  0.0000000000000D+00  0.0000000000000D+00
   216  2.1500000000000D+00  0.0000000000000D+00  0.0000000000000D+00
   217  2.1600000000000D+00  0.0000000000000D+00  0.0000000000000D+00
   218  2.1700000000000D+00  0.0000000000000D+00  0.0000000000000D+00
   219  2.1800000000000D+00  0.0000000000000D+00  0.0000000000000D+00
   220  2.1900000000000D+00  0.0000000000000D+00  0.0000000000000D+00
   221  2.2000000000000D+00  0.0000000000000D+00  0.0000000000000D+00
   222  2.2100000000000D+00  0.0000000000000D+00  0.0000000000000D+00
   223  2.2200000000000D+00  0.0000000000000D+00  0.0000000000000D+00
   224  2.2300000000000D+00  0.0000000000000D+00  0.0000000000000D+00
   225  2.2400000000000D+00  0.0000000000000D+00  0.0000000000000D+00
   226  2.2500000000000D+00  0.0000000000000D+00  0.0000000000000D+00
   227  2.2600000000000D+00  0.0000000000000D+00  0.0000000000000D+00
   228  2.2700000000000D+00  0.0000000000000D+00  0.0000000000000D+00
   229  2.2800000000000D+00  0.0000000000000D+00  0.0000000000000D+00
   230  2.2900000000000D+00  0.0000000000000D+00  0.0000000000000D+00
   231  2.3000000000000D+00  0.0000000000000D+00  0.0000000000000D+00
   232  2.3100000000000D+00  0.0000000000000D+00  0.0000000000000D+00
   233  2.3200000000000D+00  0.0000000000000D+00  0.0000000000000D+00
   234  2.3300000000000D+00  0.0000000000000D+00  0.0000000000000D+00
   235  2.3400000000000D+00  0.0000000000000D+00  0.0000000000000D+00
   236  2.3500000000000D+00  0.0000000000000D+00  0.0000000000000D+00
   237  2.3600000000000D+00  0.0000000000000D+00  0.0000000000000D+00
   238  2.3700000000000D+00  0.0000000000000D+00  0.0000000000000D+00
   239  2.3800000000000D+00  0.0000000000000D+00  0.0000000000000D+00
   240  2.3900000000000D+00  0.0000000000000D+00  0.0000000000000D+00
   241  2.4000000000000D+00  0.0000000000000D+00  0.0000000000000D+00
   242  2.4100000000000D+00  0.0000000000000D+00  0.0000000000000D+00
   243  2.4200000000000D+00  0.0000000000000D+00  0.0000000000000D+00
   244  2.4300000000000D+00  0.0000000000000D+00  0.0000000000000D+00
   245  2.4400000000000D+00  0.0000000000000D+00  0.0000000000000D+00
   246  2.4500000000000D+00  0.0000000000000D+00  0.0000000000000D+00
   247  2.4600000000000D+00  0.0000000000000D+00  0.0000000000000D+00
   248  2.4700000000000D+00  0.0000000000000D+00  0.0000000000000D+00
   249  2.4800000000000D+00  0.0000000000000D+00  0.0000000000000D+00
   250  2.4900000000000D+00  0.0000000000000D+00  0.0000000000000D+00
   251  2.5000000000000D+00  0.0000000000000D+00  0.0000000000000D+00
   252  2.5100000000000D+00  0.0000000000000D+00  0.0000000000000D+00
   253  2.5200000000000D+00  0.0000000000000D+00  0.0000000000000D+00
   254  2.5300000000000D+00  0.0000000000000D+00  0.0000000000000D+00
   255  2.5400000000000D+00  0.0000000000000D+00  0.0000000000000D+00
   256  2.5500000000000D+00  0.0000000000000D+00  0.0000000000000D+00
   257  2.5600000000000D+00  0.0000000000000D+00  0.0000000000000D+00
   258  2.5700000000000D+00  0.0000000000000D+00  0.0000000000000D+00
   259  2.5800000000000D+00  0.0000000000000D+00  0.0000000000000D+00
   260  2.5900000000000D+00  0.0000000000000D+00  0.0000000000000D+00
   261  2.6000000000000D+00  0.0000000000000D+00  0.0000000000000D+00
   262  2.6100000000000D+00  0.0000000000000D+00  0.0000000000000D+00
   263  2.6200000000000D+00  0.0000000000000D+00  0.0000000000000D+00
   264  2.6300000000000D+00  0.0000000000000D+00  0.0000000000000D+00
   265  2.6400000000000D+00  0.0000000000000D+00  0.0000000000000D+00
   266  2.6500000000000D+00  0.0000000000000D+00  0.0000000000000D+00
   267  2.6600000000000D+00  0.0000000000000D+00  0.0000000000000D+00
   268  2.6700000000000D+00  0.0000000000000D+00  0.0000000000000D+00
   269  2.6800000000000D+00  0.0000000000000D+00  0.0000000000000D+00
   270  2.6900000000000D+00  0.0000000000000D+00  0.0000000000000D+00
   271  2.7000000000000D+00  0.0000000000000D+00  0.0000000000000D+00
   272  2.7100000000000D+00  0.0000000000000D+00  0.0000000000000D+00
   273  2.7200000000000D+00  0.0000000000000D+00  0.0000000000000D+00
   274  2.7300000000000D+00  0.0000000000000D+00  0.0000000000000D+00
   275  2.7400000000000D+00  0.0000000000000D+00  0.0000000000000D+00
   276  2.7500000000000D+00  0.0000000000000D+00  0.0000000000000D+00
   277  2.7600000000000D+00  0.0000000000000D+00  0.0000000000000D+00
   278  2.7700000000000D+00  0.0000000000000D+00  0.0000000000000D+00
   279  2.7800000000000D+00  0.0000000000000D+00  0.0000000000000D+00
   280  2.7900000000000D+00  0.0000000000000D+00  0.0000000000000D+00
   281  2.8000000000000D+00  0.0000000000000D+00  0.0000000000000D+00
   282  2.8100000000000D+00  0.0000000000000D+00  0.0000000000000D+00
   283  2.8200000000000D+00  0.0000000000000D+00  0.0000000000000D+00
   284  2.8300000000000D+00  0.0000000000000D+00  0.0000000000000D+00
   285  2.8400000000000D+00  0.0000000000000D+00  0.0000000000000D+00
   286  2.8500000000000D+00  0.0000000000000D+00  0.0000000000000D+00
   287  2.8600000000000D+00  0.0000000000000D+00  0.0000000000000D+00
   288  2.8700000000000D+00  0.0000000000000D+00  0.0000000000000D+00
   289  2.8800000000000D+00  0.0000000000000D+00  0.0000000000000D+00
   290  2.8900000000000D+00  0.0000000000000D+00  0.0000000000000D+00
   291  2.9000000000000D+00  0.0000000000000D+00  0.0000000000000D+00
   292  2.9100000000000D+00  0.0000000000000D+00  0.0000000000000D+00
   293  2.9200000000000D+00  0.0000000000000D+00  0.0000000000000D+00
   294  2.9300000000000D+00  0.0000000000000D+00  0.0000000000000D+00
   295  2.9400000000000D+00  0.0000000000000D+00  0.0000000000000D+00
   296  2.9500000000000D+00  0.0000000000000D+00  0.0000000000000D+00
   297  2.9600000000000D+00  0.0000000000000D+00  0.0000000000000D+00
   298  2.9700000000000D+00  0.0000000000000D+00  0.0000000000000D+00
   299  2.9800000000000D+00  0.0000000000000D+00  0.0000000000000D+00
   300  2.9900000000000D+00  0.0000000000000D+00  0.0000000000000D+00
   301  3.0000000000000D+00  0.0000000000000D+00  0.0000000000000D+00
   302  3.0100000000000D+00  0.0000000000000D+00  0.0000000000000D+00
   303  3.0200000000000D+00  0.0000000000000D+00  0.0000000000000D+00
   304  3.0300000000000D+00  0.0000000000000D+00  0.0000000000000D+00
   305  3.0400000000000D+00  0.0000000000000D+00  0.0000000000000D+00
   306  3.0500000000000D+00  0.0000000000000D+00  0.0000000000000D+00
   307  3.0600000000000D+00  0.0000000000000D+00  0.0000000000000D+00
   308  3.0700000000000D+00  0.0000000000000D+00  0.0000000000000D+00
   309  3.0800000000000D+00  0.0000000000000D+00  0.0000000000000D+00
   310  3.0900000000000D+00  0.0000000000000D+00  0.0000000000000D+00
   311  3.1000000000000D+00  0.0000000000000D+00  0.0000000000000D+00
   312  3.1100000000000D+00  0.0000000000000D+00  0.0000000000000D+00
   313  3.1200000000000D+00  0.0000000000000D+00  0.0000000000000D+00
   314  3.1300000000000D+00  0.0000000000000D+00  0.0000000000000D+00
   315  3.1400000000000D+00  0.0000000000000D+00  0.0000000000000D+00
   316  3.1500000000000D+00  0.0000000000000D+00  0.0000000000000D+00
   317  3.1600000000000D+00  0.0000000000000D+00  0.0000000000000D+00
   318  3.1700000000000D+00  0.0000000000000D+00  0.0000000000000D+00
   319  3.1800000000000D+00  0.0000000000000D+00  0.0000000000000D+00
   320  3.1900000000000D+00  0.0000000000000D+00  0.0000000000000D+00
   321  3.2000000000000D+00  0.0000000000000D+00  0.0000000000000D+00
   322  3.2100000000000D+00  0.0000000000000D+00  0.0000000000000D+00
   323  3.2200000000000D+00  0.0000000000000D+00  0.0000000000000D+00
   324  3.2300000000000D+00  0.0000000000000D+00  0.0000000000000D+00
   325  3.2400000000000D+00  0.0000000000000D+00  0.0000000000000D+00
   326  3.2500000000000D+00  0.0000000000000D+00  0.0000000000000D+00
   327  3.2600000000000D+00  0.0000000000000D+00  0.0000000000000D+00
   328  3.2700000000000D+00  0.0000000000000D+00  0.0000000000000D+00
   329  3.2800000000000D+00  0.0000000000000D+00  0.0000000000000D+00
   330  3.2900000000000D+00  0.0000000000000D+00  0.0000000000000D+00
   331  3.3000000000000D+00  0.0000000000000D+00  0.0000000000000D+00
   332  3.3100000000000D+00  0.0000000000000D+00  0.0000000000000D+00
   333  3.3200000000000D+00  0.0000000000000D+00  0.0000000000000D+00
   334  3.3300000000000D+00  0.0000000000000D+00  0.0000000000000D+00
   335  3.3400000000000D+00  0.0000000000000D+00  0.0000000000000D+00
   336  3.3500000000000D+00  0.0000000000000D+00  0.0000000000000D+00
   337  3.3600000000000D+00  0.0000000000000D+00  0.0000000000000D+00
   338  3.3700000000000D+00  0.0000000000000D+00  0.0000000000000D+00
   339  3.3800000000000D+00  0.0000000000000D+00  0.0000000000000D+00
   340  3.3900000000000D+00  0.0000000000000D+00  0.0000000000000D+00
   341  3.4000000000000D+00  0.0000000000000D+00  0.0000000000000D+00
   342  3.4100000000000D+00  0.0000000000000D+00  0.0000000000000D+00
   343  3.4200000000000D+00  0.0000000000000D+00  0.0000000000000D+00
   344  3.4300000000000D+00  0.0000000000000D+00  0.0000000000000D+00
   345  3.4400000000000D+00  0.0000000000000D+00  0.0000000000000D+00
   346  3.4500000000000D+00  0.0000000000000D+00  0.0000000000000D+00
   347  3.4600000000000D+00  0.0000000000000D+00  0.0000000000000D+00
   348  3.4700000000000D+00  0.0000000000000D+00  0.0000000000000D+00
   349  3.4800000000000D+00  0.0000000000000D+00  0.0000000000000D+00
   350  3.4900000000000D+00  0.0000000000000D+00  0.0000000000000D+00
   351  3.5000000000000D+00  0.0000000000000D+00  0.0000000000000D+00
   352  3.5100000000000D+00  0.0000000000000D+00  0.0000000000000D+00
   353  3.5200000000000D+00  0.0000000000000D+00  0.0000000000000D+00
   354  3.5300000000000D+00  0.0000000000000D+00  0.0000000000000D+00
   355  3.5400000000000D+00  0.0000000000000D+00  0.0000000000000D+00
   356  3.5500000000000D+00  0.0000000000000D+00  0.0000000000000D+00
   357  3.5600000000000D+00  0.0000000000000D+00  0.0000000000000D+00
   358  3.5700000000000D+00  0.0000000000000D+00  0.0000000000000D+00
   359  3.5800000000000D+00  0.0000000000000D+00  0.0000000000000D+00
   360  3.5900000000000D+00  0.0000000000000D+00  0.0000000000000D+00
   361  3.6000000000000D+00  0.0000000000000D+00  0.0000000000000D+00
   362  3.6100000000000D+00  0.0000000000000D+00  0.0000000000000D+00
   363  3.6200000000000D+00  0.0000000000000D+00  0.0000000000000D+00
   364  3.6300000000000D+00  0.0000000000000D+00  0.0000000000000D+00
   365  3.6400000000000D+00  0.0000000000000D+00  0.0000000000000D+00
   366  3.6500000000000D+00  0.0000000000000D+00  0.0000000000000D+00
   367  3.6600000000000D+00  0.0000000000000D+00  0.0000000000000D+00
   368  3.6700000000000D+00  0.0000000000000D+00  0.0000000000000D+00
   369  3.6800000000000D+00  0.0000000000000D+00  0.0000000000000D+00
   370  3.6900000000000D+00  0.0000000000000D+00  0.0000000000000D+00
   371  3.7000000000000D+00  0.0000000000000D+00  0.0000000000000D+00
   372  3.7100000000000D+00  0.0000000000000D+00  0.0000000000000D+00
   373  3.7200000000000D+00  0.0000000000000D+00  0.0000000000000D+00
   374  3.7300000000000D+00  0.0000000000000D+00  0.0000000000000D+00
   375  3.7400000000000D+00  0.0000000000000D+00  0.0000000000000D+00
   376  3.7500000000000D+00  0.0000000000000D+00  0.0000000000000D+00
   377  3.7600000000000D+00  0.0000000000000D+00  0.0000000000000D+00
   378  3.7700000000000D+00  0.0000000000000D+00  0.0000000000000D+00
   379  3.7800000000000D+00  0.0000000000000D+00  0.0000000000000D+00
   380  3.7900000000000D+00  0.0000000000000D+00  0.0000000000000D+00
   381  3.8000000000000D+00  0.0000000000000D+00  0.0000000000000D+00
   382  3.8100000000000D+00  0.0000000000000D+00  0.0000000000000D+00
   383  3.8200000000000D+00  0.0000000000000D+00  0.0000000000000D+00
   384  3.8300000000000D+00  0.0000000000000D+00  0.0000000000000D+00
   385  3.8400000000000D+00  0.0000000000000D+00  0.0000000000000D+00
   386  3.8500000000000D+00  0.0000000000000D+00  0.0000000000000D+00
   387  3.8600000000000D+00  0.0000000000000D+00  0.0000000000000D+00
   388  3.8700000000000D+00  0.0000000000000D+00  0.0000000000000D+00
   389  3.8800000000000D+00  0.0000000000000D+00  0.0000000000000D+00
   390  3.8900000000000D+00  0.0000000000000D+00  0.0000000000000D+00
   391  3.9000000000000D+00  0.0000000000000D+00  0.0000000000000D+00
   392  3.9100000000000D+00  0.0000000000000D+00  0.0000000000000D+00
   393  3.9200000000000D+00  0.0000000000000D+00  0.0000000000000D+00
   394  3.9300000000000D+00  0.0000000000000D+00  0.0000000000000D+00
   395  3.9400000000000D+00  0.0000000000000D+00  0.0000000000000D+00
   396  3.9500000000000D+00  0.0000000000000D+00  0.0000000000000D+00
   397  3.9600000000000D+00  0.0000000000000D+00  0.0000000000000D+00
   398  3.9700000000000D+00  0.0000000000000D+00  0.0000000000000D+00
   399  3.9800000000000D+00  0.0000000000000D+00  0.0000000000000D+00
   400  3.9900000000000D+00  0.0000000000000D+00  0.0000000000000D+00
   401  4.0000000000000D+00  0.0000000000000D+00  0.0000000000000D+00
   402  4.0100000000000D+00  0.0000000000000D+00  0.0000000000000D+00
   403  4.0200000000000D+00  0.0000000000000D+00  0.0000000000000D+00
   404  4.0300000000000D+00  0.0000000000000D+00  0.0000000000000D+00
   405  4.0400000000000D+00  0.0000000000000D+00  0.0000000000000D+00
   406  4.0500000000000D+00  0.0000000000000D+00  0.0000000000000D+00
   407  4.0600000000000D+00  0.0000000000000D+00  0.0000000000000D+00
   408  4.0700000000000D+00  0.0000000000000D+00  0.0000000000000D+00
   409  4.0800000000000D+00  0.0000000000000D+00  0.0000000000000D+00
   410  4.0900000000000D+00  0.0000000000000D+00  0.0000000000000D+00
   411  4.1000000000000D+00  0.0000000000000D+00  0.0000000000000D+00
   412  4.1100000000000D+00  0.0000000000000D+00  0.0000000000000D+00
   413  4.1200000000000D+00  0.0000000000000D+00  0.0000000000000D+00
   414  4.1300000000000D+00  0.0000000000000D+00  0.0000000000000D+00
   415  4.1400000000000D+00  0.0000000000000D+00  0.0000000000000D+00
   416  4.1500000000000D+00  0.0000000000000D+00  0.0000000000000D+00
   417  4.1600000000000D+00  0.0000000000000D+00  0.0000000000000D+00
   418  4.1700000000000D+00  0.0000000000000D+00  0.0000000000000D+00
   419  4.1800000000000D+00  0.0000000000000D+00  0.0000000000000D+00
   420  4.1900000000000D+00  0.0000000000000D+00  0.0000000000000D+00
   421  4.2000000000000D+00  0.0000000000000D+00  0.0000000000000D+00
   422  4.2100000000000D+00  0.0000000000000D+00  0.0000000000000D+00