Hf    ONCVPSP-3.3.0  r_core=   1.71613   1.71613   1.71613   2.42541
     72.0000     12.0000      220117    zatom,zion,pspd
     8      11   3     4   600     0    pspcod,pspxc,lmax,lloc,mmax,r2well
  5.99000000  0.00000000  0.00000000    rchrg fchrg qchrg
     2     2     2     2     0    nproj
     1     1           extension_switch
   0                         5.7514904664609D+00 -6.3138325623879D-01
     1  0.0000000000000D+00  6.3975769126756D-11  1.0228076163799D-09
     2  1.0000000000000D-02  5.0609205267353D-02 -5.5952781627746D-02
     3  2.0000000000000D-02  1.0116235295404D-01 -1.1159242421343D-01
     4  3.0000000000000D-02  1.5160334899132D-01 -1.6660830967413D-01
     5  4.0000000000000D-02  2.0187602775236D-01 -2.2069483669693D-01
     6  5.0000000000000D-02  2.5192411980183D-01 -2.7355386651559D-01
     7  6.0000000000000D-02  3.0169122383413D-01 -3.2489709428937D-01
     8  7.0000000000000D-02  3.5112078412069D-01 -3.7444832249682D-01
     9  8.0000000000000D-02  4.0015607472258D-01 -4.2194561378002D-01
    10  9.0000000000000D-02  4.4874019164640D-01 -4.6714330193394D-01
    11  1.0000000000000D-01  4.9681605402820D-01 -5.0981384121692D-01
    12  1.1000000000000D-01  5.4432641532488D-01 -5.4974947584761D-01
    13  1.2000000000000D-01  5.9121388537469D-01 -5.8676371343345D-01
    14  1.3000000000000D-01  6.3742096406038D-01 -6.2069258812618D-01
    15  1.4000000000000D-01  6.8289008717045D-01 -6.5139570149991D-01
    16  1.5000000000000D-01  7.2756368490880D-01 -6.7875703147469D-01
    17  1.6000000000000D-01  7.7138425335041D-01 -7.0268550203808D-01
    18  1.7000000000000D-01  8.1429443898421D-01 -7.2311530902546D-01
    19  1.8000000000000D-01  8.5623713632348D-01 -7.4000599977884D-01
    20  1.9000000000000D-01  8.9715559840268D-01 -7.5334230708822D-01
    21  2.0000000000000D-01  9.3699355981766D-01 -7.6313374040235D-01
    22  2.1000000000000D-01  9.7569537180618D-01 -7.6941393984879D-01
    23  2.2000000000000D-01  1.0132061487094D+00 -7.7223980110125D-01
    24  2.3000000000000D-01  1.0494719250033D+00 -7.7169038154767D-01
    25  2.4000000000000D-01  1.0844398219450D+00 -7.6786560052127D-01
    26  2.5000000000000D-01  1.1180582227413D+00 -7.6088474853233D-01
    27  2.6000000000000D-01  1.1502769550230D+00 -7.5088482246035D-01
    28  2.7000000000000D-01  1.1810474792888D+00 -7.3801870551004D-01
    29  2.8000000000000D-01  1.2103230818847D+00 -7.2245321238239D-01
    30  2.9000000000000D-01  1.2380590709907D+00 -7.0436702154442D-01
    31  3.0000000000000D-01  1.2642129740165D+00 -6.8394851768433D-01
    32  3.1000000000000D-01  1.2887447347428D+00 -6.6139356839624D-01
    33  3.2000000000000D-01  1.3116169085088D+00 -6.3690325984245D-01
    34  3.3000000000000D-01  1.3327948537133D+00 -6.1068161658126D-01
    35  3.4000000000000D-01  1.3522469178928D+00 -5.8293333091880D-01
    36  3.5000000000000D-01  1.3699446166458D+00 -5.5386152704249D-01
    37  3.6000000000000D-01  1.3858628036983D+00 -5.2366558482061D-01
    38  3.7000000000000D-01  1.3999798304502D+00 -4.9253904750916D-01
    39  3.8000000000000D-01  1.4122776934010D+00 -4.6066763670149D-01
    40  3.9000000000000D-01  1.4227421679306D+00 -4.2822739669357D-01
    41  4.0000000000000D-01  1.4313629270042D+00 -3.9538298903134D-01
    42  4.1000000000000D-01  1.4381336434768D+00 -3.6228615636916D-01
    43  4.2000000000000D-01  1.4430520747973D+00 -3.2907437291679D-01
    44  4.3000000000000D-01  1.4461201290459D+00 -2.9586969670330D-01
    45  4.4000000000000D-01  1.4473439113847D+00 -2.6277783666340D-01
    46  4.5000000000000D-01  1.4467337501617D+00 -2.2988744517462D-01
    47  4.6000000000000D-01  1.4443042020731D+00 -1.9726964416887D-01
    48  4.7000000000000D-01  1.4400740359622D+00 -1.6497779033450D-01
    49  4.8000000000000D-01  1.4340661950153D+00 -1.3304748224148D-01
    50  4.9000000000000D-01  1.4263077372965D+00 -1.0149680949272D-01
    51  5.0000000000000D-01  1.4168297547500D+00 -7.0326841255515D-02
    52  5.1000000000000D-01  1.4056672709854D+00 -3.9522348789030D-02
    53  5.2000000000000D-01  1.3928591183449D+00 -9.0527538873658D-03
    54  5.3000000000000D-01  1.3784477949344D+00  2.1126707471865D-02
    55  5.4000000000000D-01  1.3624793024764D+00  5.1073619513023D-02
    56  5.5000000000000D-01  1.3450029660108D+00  8.0856834724178D-02
    57  5.6000000000000D-01  1.3260712366328D+00  1.1055475349236D-01
    58  5.7000000000000D-01  1.3057394786063D+00  1.4025345527727D-01
    59  5.8000000000000D-01  1.2840657423301D+00  1.7004470316642D-01
    60  5.9000000000000D-01  1.2611105247614D+00  2.0002384529512D-01
    61  6.0000000000000D-01  1.2369365190089D+00  2.3028763802627D-01
    62  6.1000000000000D-01  1.2116083549067D+00  2.6093201692200D-01
    63  6.2000000000000D-01  1.1851923324572D+00  2.9204984241316D-01
    64  6.3000000000000D-01  1.1577561500907D+00  3.2372864765020D-01
    65  6.4000000000000D-01  1.1293686297350D+00  3.5604841630664D-01
    66  6.5000000000000D-01  1.1000994407098D+00  3.8907941808727D-01
    67  6.6000000000000D-01  1.0700188244656D+00  4.2288012937420D-01
    68  6.7000000000000D-01  1.0391973221745D+00  4.5749526581567D-01
    69  6.8000000000000D-01  1.0077055071421D+00  4.9295395273474D-01
    70  6.9000000000000D-01  9.7561372396107D-01  5.2926805801677D-01
    71  7.0000000000000D-01  9.4299183625442D-01  5.6643071062782D-01
    72  7.1000000000000D-01  9.0990898476538D-01  6.0441502613835D-01
    73  7.2000000000000D-01  8.7643335744785D-01  6.4317305859857D-01
    74  7.3000000000000D-01  8.4263197308653D-01  6.8263499583884D-01
    75  7.4000000000000D-01  8.0857047984080D-01  7.2270861279999D-01
    76  7.5000000000000D-01  7.7431296995438D-01  7.6327899481001D-01
    77  7.6000000000000D-01  7.3992181171117D-01  8.0420853990021D-01
    78  7.7000000000000D-01  7.0545749954447D-01  8.4533724627855D-01
    79  7.8000000000000D-01  6.7097852302488D-01  8.8648328800292D-01
    80  7.9000000000000D-01  6.3654125526415D-01  9.2744387874681D-01
    81  8.0000000000000D-01  6.0219986107826D-01  9.6799642035901D-01
    82  8.1000000000000D-01  5.6800622505687D-01  1.0078999297201D+00
    83  8.2000000000000D-01  5.3400989948864D-01  1.0468967342274D+00
    84  8.3000000000000D-01  5.0025807189577D-01  1.0847144231293D+00
    85  8.4000000000000D-01  4.6679555173736D-01  1.1210680389087D+00
    86  8.5000000000000D-01  4.3366477565316D-01  1.1556624900277D+00
    87  8.6000000000000D-01  4.0090583043816D-01  1.1881951636163D+00
    88  8.7000000000000D-01  3.6855649276597D-01  1.2183587141445D+00
    89  8.8000000000000D-01  3.3665228451750D-01  1.2458440017980D+00
    90  8.9000000000000D-01  3.0522654242263D-01  1.2703431522054D+00
    91  9.0000000000000D-01  2.7431050058698D-01  1.2915527073559D+00
    92  9.1000000000000D-01  2.4393338435764D-01  1.3091768360514D+00
    93  9.2000000000000D-01  2.1412251387788D-01  1.3229305710275D+00
    94  9.3000000000000D-01  1.8490341559701D-01  1.3325430390245D+00
    95  9.4000000000000D-01  1.5629993993580D-01  1.3377606495636D+00
    96  9.5000000000000D-01  1.2833438326170D-01  1.3383502080187D+00
    97  9.6000000000000D-01  1.0102761230254D-01  1.3341019187616D+00
    98  9.7000000000000D-01  7.4399189122050D-02  1.3248322447178D+00
    99  9.8000000000000D-01  4.8467494796226D-02  1.3103865905766D+00
   100  9.9000000000000D-01  2.3249849965269D-02  1.2906417781660D+00
   101  1.0000000000000D+00 -1.2373695057685D-03  1.2655082841586D+00
   102  1.0100000000000D+00 -2.4978623452074D-02  1.2349322121351D+00
   103  1.0200000000000D+00 -4.7959106515414D-02  1.1988969733879D+00
   104  1.0300000000000D+00 -7.0164656915269D-02  1.1574246533742D+00
   105  1.0400000000000D+00 -9.1581676238123D-02  1.1105770435661D+00
   106  1.0500000000000D+00 -1.1219706145341D-01  1.0584563215127D+00
   107  1.0600000000000D+00 -1.3199815019562D-01  1.0012053654114D+00
   108  1.0700000000000D+00 -1.5097268020092D-01  9.3900769255865D-01
   109  1.0800000000000D+00 -1.6910876357753D-01  8.7208701521989D-01
   110  1.0900000000000D+00 -1.8639487641443D-01  8.0070641087516D-01
   111  1.1000000000000D+00 -2.0281986402752D-01  7.2516710778996D-01
   112  1.1100000000000D+00 -2.1837296193507D-01  6.4580689081989D-01
   113  1.1200000000000D+00 -2.3304383247261D-01  5.6299813581207D-01
   114  1.1300000000000D+00 -2.4682261671393D-01  4.7714548553077D-01
   115  1.1400000000000D+00 -2.5970000119117D-01  3.8868318324650D-01
   116  1.1500000000000D+00 -2.7166729868355D-01  2.9807208423224D-01
   117  1.1600000000000D+00 -2.8271654219739D-01  2.0579636809411D-01
   118  1.1700000000000D+00 -2.9284059101218D-01  1.1235997932603D-01
   119  1.1800000000000D+00 -3.0203324753522D-01  1.8282825800981D-02
   120  1.1900000000000D+00 -3.1028938354357D-01 -7.5903232203914D-02
   121  1.2000000000000D+00 -3.1760507424686D-01 -1.6965856732629D-01
   122  1.2100000000000D+00 -3.2397773845202D-01 -2.6244010708426D-01
   123  1.2200000000000D+00 -3.2940628301733D-01 -3.5370575331305D-01
   124  1.2300000000000D+00 -3.3389124971566D-01 -4.4291885873184D-01
   125  1.2400000000000D+00 -3.3743496249362D-01 -5.2955271829916D-01
   126  1.2500000000000D+00 -3.4004167311672D-01 -6.1309503328243D-01
   127  1.2600000000000D+00 -3.4171770314565D-01 -6.9305230529008D-01
   128  1.2700000000000D+00 -3.4247158015977D-01 -7.6895411743248D-01
   129  1.2800000000000D+00 -3.4231416620998D-01 -8.4035726130185D-01
   130  1.2900000000000D+00 -3.4125877647115D-01 -9.0684966832581D-01
   131  1.3000000000000D+00 -3.3932128613551D-01 -9.6805410586976D-01
   132  1.3100000000000D+00 -3.3652022375374D-01 -1.0236316018535D+00
   133  1.3200000000000D+00 -3.3287684917938D-01 -1.0732845606739D+00
   134  1.3300000000000D+00 -3.2841521451633D-01 -1.1167595383722D+00
   135  1.3400000000000D+00 -3.2316220670324D-01 -1.1538496495501D+00
   136  1.3500000000000D+00 -3.1714757017891D-01 -1.1843965748859D+00
   137  1.3600000000000D+00 -3.1040390871653D-01 -1.2082921509000D+00
   138  1.3700000000000D+00 -3.0296666543468D-01 -1.2254795219199D+00
   139  1.3800000000000D+00 -2.9487408007567D-01 -1.2359538359708D+00
   140  1.3900000000000D+00 -2.8616712337102D-01 -1.2397624804201D+00
   141  1.4000000000000D+00 -2.7688940787403D-01 -1.2370048446858D+00
   142  1.4100000000000D+00 -2.6708707536771D-01 -1.2278316114498D+00
   143  1.4200000000000D+00 -2.5680866117517D-01 -1.2124435818933D+00
   144  1.4300000000000D+00 -2.4610493536230D-01 -1.1910900341273D+00
   145  1.4400000000000D+00 -2.3502872208344D-01 -1.1640666380027D+00
   146  1.4500000000000D+00 -2.2363469742834D-01 -1.1317129324847D+00
   147  1.4600000000000D+00 -2.1197916722098D-01 -1.0944093925728D+00
   148  1.4700000000000D+00 -2.0011982610719D-01 -1.0525741105185D+00
   149  1.4800000000000D+00 -1.8811549916881D-01 -1.0066591142880D+00
   150  1.4900000000000D+00 -1.7602586840136D-01 -9.5714636690668D-01
   151  1.5000000000000D+00 -1.6391118526392D-01 -9.0454346909081D-01
   152  1.5100000000000D+00 -1.5183197209567D-01 -8.4937911740552D-01
   153  1.5200000000000D+00 -1.3984871410682D-01 -7.9219834974620D-01
   154  1.5300000000000D+00 -1.2802154464110D-01 -7.3355762853878D-01
   155  1.5400000000000D+00 -1.1640992601921D-01 -6.7401980475729D-01
   156  1.5500000000000D+00 -1.0507232856351D-01 -6.1414901131880D-01
   157  1.5600000000000D+00 -9.4065910389944D-02 -5.5450553415673D-01
   158  1.5700000000000D+00 -8.3446200662972D-02 -4.9564071129520D-01
   159  1.5800000000000D+00 -7.3266788772774D-02 -4.3809190589040D-01
   160  1.5900000000000D+00 -6.3579022391848D-02 -3.8237760841937D-01
   161  1.6000000000000D+00 -5.4431716487628D-02 -3.2899270688124D-01
   162  1.6100000000000D+00 -4.5870876408154D-02 -2.7840398316249D-01
   163  1.6200000000000D+00 -3.7939436750947D-02 -2.3104586763244D-01
   164  1.6300000000000D+00 -3.0677019031896D-02 -1.8731650826232D-01
   165  1.6400000000000D+00 -2.4119709564823D-02 -1.4757418078362D-01
   166  1.6500000000000D+00 -1.8299860234969D-02 -1.1213408999347D-01
   167  1.6600000000000D+00 -1.3248104518482D-02 -8.1279058173987D-02
   168  1.6700000000000D+00 -8.9854775241511D-03 -5.5209652401790D-02
   169  1.6800000000000D+00 -5.5158860356211D-03 -3.3994306528481D-02
   170  1.6900000000000D+00 -2.8812977731628D-03 -1.7916634319925D-02
   171  1.7000000000000D+00 -1.1516913346789D-03 -7.4216975513588D-03
   172  1.7100000000000D+00 -2.5348895613222D-04 -1.9990357195333D-03
   173  1.7200000000000D+00  5.8345879824138D-05 -1.1871006620596D-05
   174  1.7300000000000D+00  5.6858370430578D-05  2.0638325898115D-04
   175  1.7400000000000D+00 -1.4882158186278D-05 -6.1160767746850D-05
   176  1.7500000000000D+00 -2.2296437608921D-05 -9.7233028318584D-05
   177  1.7600000000000D+00  1.9107478591971D-06  7.1417625416219D-06
   178  1.7700000000000D+00  4.4167867402184D-06  1.7216541707457D-05
   179  1.7800000000000D+00  7.1945374920279D-09  3.2715388143086D-07
   180  1.7900000000000D+00  3.0595309156061D-08  1.3912463664375D-06
   181  1.8000000000000D+00  1.0175172763394D-11  4.6269093287270D-10
   182  1.8100000000000D+00  0.0000000000000D+00  0.0000000000000D+00
   183  1.8200000000000D+00  0.0000000000000D+00  0.0000000000000D+00
   184  1.8300000000000D+00  0.0000000000000D+00  0.0000000000000D+00
   185  1.8400000000000D+00  0.0000000000000D+00  0.0000000000000D+00
   186  1.8500000000000D+00  0.0000000000000D+00  0.0000000000000D+00
   187  1.8600000000000D+00  0.0000000000000D+00  0.0000000000000D+00
   188  1.8700000000000D+00  0.0000000000000D+00  0.0000000000000D+00
   189  1.8800000000000D+00  0.0000000000000D+00  0.0000000000000D+00
   190  1.8900000000000D+00  0.0000000000000D+00  0.0000000000000D+00
   191  1.9000000000000D+00  0.0000000000000D+00  0.0000000000000D+00
   192  1.9100000000000D+00  0.0000000000000D+00  0.0000000000000D+00
   193  1.9200000000000D+00  0.0000000000000D+00  0.0000000000000D+00
   194  1.9300000000000D+00  0.0000000000000D+00  0.0000000000000D+00
   195  1.9400000000000D+00  0.0000000000000D+00  0.0000000000000D+00
   196  1.9500000000000D+00  0.0000000000000D+00  0.0000000000000D+00
   197  1.9600000000000D+00  0.0000000000000D+00  0.0000000000000D+00
   198  1.9700000000000D+00  0.0000000000000D+00  0.0000000000000D+00
   199  1.9800000000000D+00  0.0000000000000D+00  0.0000000000000D+00
   200  1.9900000000000D+00  0.0000000000000D+00  0.0000000000000D+00
   201  2.0000000000000D+00  0.0000000000000D+00  0.0000000000000D+00
   202  2.0100000000000D+00  0.0000000000000D+00  0.0000000000000D+00
   203  2.0200000000000D+00  0.0000000000000D+00  0.0000000000000D+00
   204  2.0300000000000D+00  0.0000000000000D+00  0.0000000000000D+00
   205  2.0400000000000D+00  0.0000000000000D+00  0.0000000000000D+00
   206  2.0500000000000D+00  0.0000000000000D+00  0.0000000000000D+00
   207  2.0600000000000D+00  0.0000000000000D+00  0.0000000000000D+00
   208  2.0700000000000D+00  0.0000000000000D+00  0.0000000000000D+00
   209  2.0800000000000D+00  0.0000000000000D+00  0.0000000000000D+00
   210  2.0900000000000D+00  0.0000000000000D+00  0.0000000000000D+00
   211  2.1000000000000D+00  0.0000000000000D+00  0.0000000000000D+00
   212  2.1100000000000D+00  0.0000000000000D+00  0.0000000000000D+00
   213  2.1200000000000D+00  0.0000000000000D+00  0.0000000000000D+00
   214  2.1300000000000D+00  0.0000000000000D+00  0.0000000000000D+00
   215  2.1400000000000D+00  0.0000000000000D+00  0.0000000000000D+00
   216  2.1500000000000D+00  0.0000000000000D+00  0.0000000000000D+00
   217  2.1600000000000D+00  0.0000000000000D+00  0.0000000000000D+00
   218  2.1700000000000D+00  0.0000000000000D+00  0.0000000000000D+00
   219  2.1800000000000D+00  0.0000000000000D+00  0.0000000000000D+00
   220  2.1900000000000D+00  0.0000000000000D+00  0.0000000000000D+00
   221  2.2000000000000D+00  0.0000000000000D+00  0.0000000000000D+00
   222  2.2100000000000D+00  0.0000000000000D+00  0.0000000000000D+00
   223  2.2200000000000D+00  0.0000000000000D+00  0.0000000000000D+00
   224  2.2300000000000D+00  0.0000000000000D+00  0.0000000000000D+00
   225  2.2400000000000D+00  0.0000000000000D+00  0.0000000000000D+00
   226  2.2500000000000D+00  0.0000000000000D+00  0.0000000000000D+00
   227  2.2600000000000D+00  0.0000000000000D+00  0.0000000000000D+00
   228  2.2700000000000D+00  0.0000000000000D+00  0.0000000000000D+00
   229  2.2800000000000D+00  0.0000000000000D+00  0.0000000000000D+00
   230  2.2900000000000D+00  0.0000000000000D+00  0.0000000000000D+00
   231  2.3000000000000D+00  0.0000000000000D+00  0.0000000000000D+00
   232  2.3100000000000D+00  0.0000000000000D+00  0.0000000000000D+00
   233  2.3200000000000D+00  0.0000000000000D+00  0.0000000000000D+00
   234  2.3300000000000D+00  0.0000000000000D+00  0.0000000000000D+00
   235  2.3400000000000D+00  0.0000000000000D+00  0.0000000000000D+00
   236  2.3500000000000D+00  0.0000000000000D+00  0.0000000000000D+00
   237  2.3600000000000D+00  0.0000000000000D+00  0.0000000000000D+00
   238  2.3700000000000D+00  0.0000000000000D+00  0.0000000000000D+00
   239  2.3800000000000D+00  0.0000000000000D+00  0.0000000000000D+00
   240  2.3900000000000D+00  0.0000000000000D+00  0.0000000000000D+00
   241  2.4000000000000D+00  0.0000000000000D+00  0.0000000000000D+00
   242  2.4100000000000D+00  0.0000000000000D+00  0.0000000000000D+00
   243  2.4200000000000D+00  0.0000000000000D+00  0.0000000000000D+00
   244  2.4300000000000D+00  0.0000000000000D+00  0.0000000000000D+00
   245  2.4400000000000D+00  0.0000000000000D+00  0.0000000000000D+00
   246  2.4500000000000D+00  0.0000000000000D+00  0.0000000000000D+00
   247  2.4600000000000D+00  0.0000000000000D+00  0.0000000000000D+00
   248  2.4700000000000D+00  0.0000000000000D+00  0.0000000000000D+00
   249  2.4800000000000D+00  0.0000000000000D+00  0.0000000000000D+00
   250  2.4900000000000D+00  0.0000000000000D+00  0.0000000000000D+00
   251  2.5000000000000D+00  0.0000000000000D+00  0.0000000000000D+00
   252  2.5100000000000D+00  0.0000000000000D+00  0.0000000000000D+00
   253  2.5200000000000D+00  0.0000000000000D+00  0.0000000000000D+00
   254  2.5300000000000D+00  0.0000000000000D+00  0.0000000000000D+00
   255  2.5400000000000D+00  0.0000000000000D+00  0.0000000000000D+00
   256  2.5500000000000D+00  0.0000000000000D+00  0.0000000000000D+00
   257  2.5600000000000D+00  0.0000000000000D+00  0.0000000000000D+00
   258  2.5700000000000D+00  0.0000000000000D+00  0.0000000000000D+00
   259  2.5800000000000D+00  0.0000000000000D+00  0.0000000000000D+00
   260  2.5900000000000D+00  0.0000000000000D+00  0.0000000000000D+00
   261  2.6000000000000D+00  0.0000000000000D+00  0.0000000000000D+00
   262  2.6100000000000D+00  0.0000000000000D+00  0.0000000000000D+00
   263  2.6200000000000D+00  0.0000000000000D+00  0.0000000000000D+00
   264  2.6300000000000D+00  0.0000000000000D+00  0.0000000000000D+00
   265  2.6400000000000D+00  0.0000000000000D+00  0.0000000000000D+00
   266  2.6500000000000D+00  0.0000000000000D+00  0.0000000000000D+00
   267  2.6600000000000D+00  0.0000000000000D+00  0.0000000000000D+00
   268  2.6700000000000D+00  0.0000000000000D+00  0.0000000000000D+00
   269  2.6800000000000D+00  0.0000000000000D+00  0.0000000000000D+00
   270  2.6900000000000D+00  0.0000000000000D+00  0.0000000000000D+00
   271  2.7000000000000D+00  0.0000000000000D+00  0.0000000000000D+00
   272  2.7100000000000D+00  0.0000000000000D+00  0.0000000000000D+00
   273  2.7200000000000D+00  0.0000000000000D+00  0.0000000000000D+00
   274  2.7300000000000D+00  0.0000000000000D+00  0.0000000000000D+00
   275  2.7400000000000D+00  0.0000000000000D+00  0.0000000000000D+00
   276  2.7500000000000D+00  0.0000000000000D+00  0.0000000000000D+00
   277  2.7600000000000D+00  0.0000000000000D+00  0.0000000000000D+00
   278  2.7700000000000D+00  0.0000000000000D+00  0.0000000000000D+00
   279  2.7800000000000D+00  0.0000000000000D+00  0.0000000000000D+00
   280  2.7900000000000D+00  0.0000000000000D+00  0.0000000000000D+00
   281  2.8000000000000D+00  0.0000000000000D+00  0.0000000000000D+00
   282  2.8100000000000D+00  0.0000000000000D+00  0.0000000000000D+00
   283  2.8200000000000D+00  0.0000000000000D+00  0.0000000000000D+00
   284  2.8300000000000D+00  0.0000000000000D+00  0.0000000000000D+00
   285  2.8400000000000D+00  0.0000000000000D+00  0.0000000000000D+00
   286  2.8500000000000D+00  0.0000000000000D+00  0.0000000000000D+00
   287  2.8600000000000D+00  0.0000000000000D+00  0.0000000000000D+00
   288  2.8700000000000D+00  0.0000000000000D+00  0.0000000000000D+00
   289  2.8800000000000D+00  0.0000000000000D+00  0.0000000000000D+00
   290  2.8900000000000D+00  0.0000000000000D+00  0.0000000000000D+00
   291  2.9000000000000D+00  0.0000000000000D+00  0.0000000000000D+00
   292  2.9100000000000D+00  0.0000000000000D+00  0.0000000000000D+00
   293  2.9200000000000D+00  0.0000000000000D+00  0.0000000000000D+00
   294  2.9300000000000D+00  0.0000000000000D+00  0.0000000000000D+00
   295  2.9400000000000D+00  0.0000000000000D+00  0.0000000000000D+00
   296  2.9500000000000D+00  0.0000000000000D+00  0.0000000000000D+00
   297  2.9600000000000D+00  0.0000000000000D+00  0.0000000000000D+00
   298  2.9700000000000D+00  0.0000000000000D+00  0.0000000000000D+00
   299  2.9800000000000D+00  0.0000000000000D+00  0.0000000000000D+00
   300  2.9900000000000D+00  0.0000000000000D+00  0.0000000000000D+00
   301  3.0000000000000D+00  0.0000000000000D+00  0.0000000000000D+00
   302  3.0100000000000D+00  0.0000000000000D+00  0.0000000000000D+00
   303  3.0200000000000D+00  0.0000000000000D+00  0.0000000000000D+00
   304  3.0300000000000D+00  0.0000000000000D+00  0.0000000000000D+00
   305  3.0400000000000D+00  0.0000000000000D+00  0.0000000000000D+00
   306  3.0500000000000D+00  0.0000000000000D+00  0.0000000000000D+00
   307  3.0600000000000D+00  0.0000000000000D+00  0.0000000000000D+00
   308  3.0700000000000D+00  0.0000000000000D+00  0.0000000000000D+00
   309  3.0800000000000D+00  0.0000000000000D+00  0.0000000000000D+00
   310  3.0900000000000D+00  0.0000000000000D+00  0.0000000000000D+00
   311  3.1000000000000D+00  0.0000000000000D+00  0.0000000000000D+00
   312  3.1100000000000D+00  0.0000000000000D+00  0.0000000000000D+00
   313  3.1200000000000D+00  0.0000000000000D+00  0.0000000000000D+00
   314  3.1300000000000D+00  0.0000000000000D+00  0.0000000000000D+00
   315  3.1400000000000D+00  0.0000000000000D+00  0.0000000000000D+00
   316  3.1500000000000D+00  0.0000000000000D+00  0.0000000000000D+00
   317  3.1600000000000D+00  0.0000000000000D+00  0.0000000000000D+00
   318  3.1700000000000D+00  0.0000000000000D+00  0.0000000000000D+00
   319  3.1800000000000D+00  0.0000000000000D+00  0.0000000000000D+00
   320  3.1900000000000D+00  0.0000000000000D+00  0.0000000000000D+00
   321  3.2000000000000D+00  0.0000000000000D+00  0.0000000000000D+00
   322  3.2100000000000D+00  0.0000000000000D+00  0.0000000000000D+00
   323  3.2200000000000D+00  0.0000000000000D+00  0.0000000000000D+00
   324  3.2300000000000D+00  0.0000000000000D+00  0.0000000000000D+00
   325  3.2400000000000D+00  0.0000000000000D+00  0.0000000000000D+00
   326  3.2500000000000D+00  0.0000000000000D+00  0.0000000000000D+00
   327  3.2600000000000D+00  0.0000000000000D+00  0.0000000000000D+00
   328  3.2700000000000D+00  0.0000000000000D+00  0.0000000000000D+00
   329  3.2800000000000D+00  0.0000000000000D+00  0.0000000000000D+00
   330  3.2900000000000D+00  0.0000000000000D+00  0.0000000000000D+00
   331  3.3000000000000D+00  0.0000000000000D+00  0.0000000000000D+00
   332  3.3100000000000D+00  0.0000000000000D+00  0.0000000000000D+00
   333  3.3200000000000D+00  0.0000000000000D+00  0.0000000000000D+00
   334  3.3300000000000D+00  0.0000000000000D+00  0.0000000000000D+00
   335  3.3400000000000D+00  0.0000000000000D+00  0.0000000000000D+00
   336  3.3500000000000D+00  0.0000000000000D+00  0.0000000000000D+00
   337  3.3600000000000D+00  0.0000000000000D+00  0.0000000000000D+00
   338  3.3700000000000D+00  0.0000000000000D+00  0.0000000000000D+00
   339  3.3800000000000D+00  0.0000000000000D+00  0.0000000000000D+00
   340  3.3900000000000D+00  0.0000000000000D+00  0.0000000000000D+00
   341  3.4000000000000D+00  0.0000000000000D+00  0.0000000000000D+00
   342  3.4100000000000D+00  0.0000000000000D+00  0.0000000000000D+00
   343  3.4200000000000D+00  0.0000000000000D+00  0.0000000000000D+00
   344  3.4300000000000D+00  0.0000000000000D+00  0.0000000000000D+00
   345  3.4400000000000D+00  0.0000000000000D+00  0.0000000000000D+00
   346  3.4500000000000D+00  0.0000000000000D+00  0.0000000000000D+00
   347  3.4600000000000D+00  0.0000000000000D+00  0.0000000000000D+00
   348  3.4700000000000D+00  0.0000000000000D+00  0.0000000000000D+00
   349  3.4800000000000D+00  0.0000000000000D+00  0.0000000000000D+00
   350  3.4900000000000D+00  0.0000000000000D+00  0.0000000000000D+00
   351  3.5000000000000D+00  0.0000000000000D+00  0.0000000000000D+00
   352  3.5100000000000D+00  0.0000000000000D+00  0.0000000000000D+00
   353  3.5200000000000D+00  0.0000000000000D+00  0.0000000000000D+00
   354  3.5300000000000D+00  0.0000000000000D+00  0.0000000000000D+00
   355  3.5400000000000D+00  0.0000000000000D+00  0.0000000000000D+00
   356  3.5500000000000D+00  0.0000000000000D+00  0.0000000000000D+00
   357  3.5600000000000D+00  0.0000000000000D+00  0.0000000000000D+00
   358  3.5700000000000D+00  0.0000000000000D+00  0.0000000000000D+00
   359  3.5800000000000D+00  0.0000000000000D+00  0.0000000000000D+00
   360  3.5900000000000D+00  0.0000000000000D+00  0.0000000000000D+00
   361  3.6000000000000D+00  0.0000000000000D+00  0.0000000000000D+00
   362  3.6100000000000D+00  0.0000000000000D+00  0.0000000000000D+00
   363  3.6200000000000D+00  0.0000000000000D+00  0.0000000000000D+00
   364  3.6300000000000D+00  0.0000000000000D+00  0.0000000000000D+00
   365  3.6400000000000D+00  0.0000000000000D+00  0.0000000000000D+00
   366  3.6500000000000D+00  0.0000000000000D+00  0.0000000000000D+00
   367  3.6600000000000D+00  0.0000000000000D+00  0.0000000000000D+00
   368  3.6700000000000D+00  0.0000000000000D+00  0.0000000000000D+00
   369  3.6800000000000D+00  0.0000000000000D+00  0.0000000000000D+00
   370  3.6900000000000D+00  0.0000000000000D+00  0.0000000000000D+00
   371  3.7000000000000D+00  0.0000000000000D+00  0.0000000000000D+00
   372  3.7100000000000D+00  0.0000000000000D+00  0.0000000000000D+00
   373  3.7200000000000D+00  0.0000000000000D+00  0.0000000000000D+00
   374  3.7300000000000D+00  0.0000000000000D+00  0.0000000000000D+00
   375  3.7400000000000D+00  0.0000000000000D+00  0.0000000000000D+00
   376  3.7500000000000D+00  0.0000000000000D+00  0.0000000000000D+00
   377  3.7600000000000D+00  0.0000000000000D+00  0.0000000000000D+00
   378  3.7700000000000D+00  0.0000000000000D+00  0.0000000000000D+00
   379  3.7800000000000D+00  0.0000000000000D+00  0.0000000000000D+00
   380  3.7900000000000D+00  0.0000000000000D+00  0.0000000000000D+00
   381  3.8000000000000D+00  0.0000000000000D+00  0.0000000000000D+00
   382  3.8100000000000D+00  0.0000000000000D+00  0.0000000000000D+00
   383  3.8200000000000D+00  0.0000000000000D+00  0.0000000000000D+00
   384  3.8300000000000D+00  0.0000000000000D+00  0.0000000000000D+00
   385  3.8400000000000D+00  0.0000000000000D+00  0.0000000000000D+00
   386  3.8500000000000D+00  0.0000000000000D+00  0.0000000000000D+00
   387  3.8600000000000D+00  0.0000000000000D+00  0.0000000000000D+00
   388  3.8700000000000D+00  0.0000000000000D+00  0.0000000000000D+00
   389  3.8800000000000D+00  0.0000000000000D+00  0.0000000000000D+00
   390  3.8900000000000D+00  0.0000000000000D+00  0.0000000000000D+00
   391  3.9000000000000D+00  0.0000000000000D+00  0.0000000000000D+00
   392  3.9100000000000D+00  0.0000000000000D+00  0.0000000000000D+00
   393  3.9200000000000D+00  0.0000000000000D+00  0.0000000000000D+00
   394  3.9300000000000D+00  0.0000000000000D+00  0.0000000000000D+00
   395  3.9400000000000D+00  0.0000000000000D+00  0.0000000000000D+00
   396  3.9500000000000D+00  0.0000000000000D+00  0.0000000000000D+00
   397  3.9600000000000D+00  0.0000000000000D+00  0.0000000000000D+00
   398  3.9700000000000D+00  0.0000000000000D+00  0.0000000000000D+00
   399  3.9800000000000D+00  0.0000000000000D+00  0.0000000000000D+00
   400  3.9900000000000D+00  0.0000000000000D+00  0.0000000000000D+00
   401  4.0000000000000D+00  0.0000000000000D+00  0.0000000000000D+00
   402  4.0100000000000D+00  0.0000000000000D+00  0.0000000000000D+00
   403  4.0200000000000D+00  0.0000000000000D+00  0.0000000000000D+00
   404  4.0300000000000D+00  0.0000000000000D+00  0.0000000000000D+00
   405  4.0400000000000D+00  0.0000000000000D+00  0.0000000000000D+00
   406  4.0500000000000D+00  0.0000000000000D+00  0.0000000000000D+00
   407  4.0600000000000D+00  0.0000000000000D+00  0.0000000000000D+00
   408  4.0700000000000D+00  0.0000000000000D+00  0.0000000000000D+00
   409  4.0800000000000D+00  0.0000000000000D+00  0.0000000000000D+00
   410  4.0900000000000D+00  0.0000000000000D+00  0.0000000000000D+00
   411  4.1000000000000D+00  0.0000000000000D+00  0.0000000000000D+00
   412  4.1100000000000D+00  0.0000000000000D+00  0.0000000000000D+00
   413  4.1200000000000D+00  0.0000000000000D+00  0.0000000000000D+00
   414  4.1300000000000D+00  0.0000000000000D+00  0.0000000000000D+00
   415  4.1400000000000D+00  0.0000000000000D+00  0.0000000000000D+00
   416  4.1500000000000D+00  0.0000000000000D+00  0.0000000000000D+00
   417  4.1600000000000D+00  0.0000000000000D+00  0.0000000000000D+00
   418  4.1700000000000D+00  0.0000000000000D+00  0.0000000000000D+00
   419  4.1800000000000D+00  0.0000000000000D+00  0.0000000000000D+00
   420  4.1900000000000D+00  0.0000000000000D+00  0.0000000000000D+00
   421  4.2000000000000D+00  0.0000000000000D+00  0.0000000000000D+00
   422  4.2100000000000D+00  0.0000000000000D+00  0.0000000000000D+00