Cd    ONCVPSP-3.3.0  r_core=   1.21414   1.21414   1.25838
     48.0000     20.0000      220117    zatom,zion,pspd
     8      11   2     4   600     0    pspcod,pspxc,lmax,lloc,mmax,r2well
  5.99000000  0.00000000  0.00000000    rchrg fchrg qchrg
     2     2     2     0     0    nproj
     1     1           extension_switch
   0                         1.9509008653616D+01  1.5131704557495D+00
     1  0.0000000000000D+00 -1.5748602422150D-09  8.1179760691441D-09
     2  1.0000000000000D-02  8.7298001877047D-02 -4.6852333772528D-02
     3  2.0000000000000D-02  1.7435287719190D-01 -9.3300996839083D-02
     4  3.0000000000000D-02  2.6092277736850D-01 -1.3894734294353D-01
     5  4.0000000000000D-02  3.4676839102403D-01 -1.8340267561677D-01
     6  5.0000000000000D-02  4.3165416603425D-01 -2.2629297742838D-01
     7  6.0000000000000D-02  5.1534947691721D-01 -2.6726335041399D-01
     8  7.0000000000000D-02  5.9762972120831D-01 -3.0598208118170D-01
     9  8.0000000000000D-02  6.7827733007405D-01 -3.4214425231831D-01
    10  9.0000000000000D-02  7.5708268031523D-01 -3.7547483154225D-01
    11  1.0000000000000D-01  8.3384489709927D-01 -4.0573118137643D-01
    12  1.1000000000000D-01  9.0837253918890D-01 -4.3270494470622D-01
    13  1.2000000000000D-01  9.8048416104575D-01 -4.5622327517695D-01
    14  1.3000000000000D-01  1.0500087489253D+00 -4.7614939568897D-01
    15  1.4000000000000D-01  1.1167860308821D+00 -4.9238248295825D-01
    16  1.5000000000000D-01  1.1806666634086D+00 -5.0485689091747D-01
    17  1.6000000000000D-01  1.2415123001738D+00 -5.1354074031524D-01
    18  1.7000000000000D-01  1.2991955509432D+00 -5.1843391591639D-01
    19  1.8000000000000D-01  1.3535998411963D+00 -5.1956552590733D-01
    20  1.9000000000000D-01  1.4046191851416D+00 -5.1699089017441D-01
    21  2.0000000000000D-01  1.4521578867233D+00 -5.1078813478312D-01
    22  2.1000000000000D-01  1.4961301847621D+00 -5.0105447899567D-01
    23  2.2000000000000D-01  1.5364598595333D+00 -4.8790230831567D-01
    24  2.3000000000000D-01  1.5730798188405D+00 -4.7145513216649D-01
    25  2.4000000000000D-01  1.6059316819472D+00 -4.5184352776170D-01
    26  2.5000000000000D-01  1.6349653795893D+00 -4.2920117242357D-01
    27  2.6000000000000D-01  1.6601387876865D+00 -4.0366106500672D-01
    28  2.7000000000000D-01  1.6814174113200D+00 -3.7535203319445D-01
    29  2.8000000000000D-01  1.6987741340519D+00 -3.4439561730960D-01
    30  2.9000000000000D-01  1.7121890457596D+00 -3.1090341302392D-01
    31  3.0000000000000D-01  1.7216493598828D+00 -2.7497494510661D-01
    32  3.1000000000000D-01  1.7271494283703D+00 -2.3669613232138D-01
    33  3.2000000000000D-01  1.7286908597269D+00 -1.9613838999346D-01
    34  3.3000000000000D-01  1.7262827424511D+00 -1.5335840189765D-01
    35  3.4000000000000D-01  1.7199419728965D+00 -1.0839857726765D-01
    36  3.5000000000000D-01  1.7096936832414D+00 -6.1288192226414D-02
    37  3.6000000000000D-01  1.6955717619064D+00 -1.2045198134213D-02
    38  3.7000000000000D-01  1.6776194554686D+00  3.9321337389814D-02
    39  3.8000000000000D-01  1.6558900379923D+00  9.2808207331621D-02
    40  3.9000000000000D-01  1.6304475307713D+00  1.4841452611184D-01
    41  4.0000000000000D-01  1.6013674528632D+00  2.0613775483468D-01
    42  4.1000000000000D-01  1.5687375805310D+00  2.6596938429889D-01
    43  4.2000000000000D-01  1.5326586918767D+00  3.2789038020275D-01
    44  4.3000000000000D-01  1.4932452715960D+00  3.9186650398742D-01
    45  4.4000000000000D-01  1.4506261499557D+00  4.5784362945348D-01
    46  4.5000000000000D-01  1.4049450498307D+00  5.2574317945565D-01
    47  4.6000000000000D-01  1.3563610159607D+00  5.9545780848643D-01
    48  4.7000000000000D-01  1.3050487015075D+00  6.6684745569963D-01
    49  4.8000000000000D-01  1.2511984885212D+00  7.3973588886565D-01
    50  4.9000000000000D-01  1.1950164210374D+00  8.1390785291169D-01
    51  5.0000000000000D-01  1.1367239322017D+00  8.8910692715906D-01
    52  5.1000000000000D-01  1.0765573500284D+00  9.6503418326763D-01
    53  5.2000000000000D-01  1.0147671700762D+00  1.0413477214367D+00
    54  5.3000000000000D-01  9.5161708742014D-01  1.1176631458234D+00
    55  5.4000000000000D-01  8.8738278474116D-01  1.1935550217491D+00
    56  5.5000000000000D-01  8.2235047804538D-01  1.2685593374207D+00
    57  5.6000000000000D-01  7.5681522640794D-01  1.3421769719199D+00
    58  5.7000000000000D-01  6.9107901706996D-01  1.4138781496635D+00
    59  5.8000000000000D-01  6.2544864215528D-01  1.4831078396529D+00
    60  5.9000000000000D-01  5.6023338805684D-01  1.5492920363074D+00
    61  6.0000000000000D-01  4.9574256312811D-01  1.6118448377024D+00
    62  6.1000000000000D-01  4.3228289353835D-01  1.6701762173758D+00
    63  6.2000000000000D-01  3.7015582098362D-01  1.7237003676187D+00
    64  6.3000000000000D-01  3.0965473922804D-01  1.7718444761153D+00
    65  6.4000000000000D-01  2.5106220916137D-01  1.8140577839967D+00
    66  6.5000000000000D-01  1.9464719408307D-01  1.8498207624037D+00
    67  6.6000000000000D-01  1.4066235821967D-01  1.8786542367138D+00
    68  6.7000000000000D-01  8.9341472004725D-02  1.9001282828845D+00
    69  6.8000000000000D-01  4.0896967351981D-02  1.9138707191806D+00
    70  6.9000000000000D-01 -4.4823149630346D-03  1.9195750188704D+00
    71  7.0000000000000D-01 -4.6633145649947D-02  1.9170074754249D+00
    72  7.1000000000000D-01 -8.5419657579727D-02  1.9060134612575D+00
    73  7.2000000000000D-01 -1.2073479292849D-01  1.8865226339708D+00
    74  7.3000000000000D-01 -1.5250141720607D-01  1.8585529603049D+00
    75  7.4000000000000D-01 -1.8067307549669D-01  1.8222134470830D+00
    76  7.5000000000000D-01 -2.0523437178672D-01  1.7777054904322D+00
    77  7.6000000000000D-01 -2.2620095823524D-01  1.7253227786054D+00
    78  7.7000000000000D-01 -2.4361912763771D-01  1.6654497097349D+00
    79  7.8000000000000D-01 -2.5756500898380D-01  1.5985583131627D+00
    80  7.9000000000000D-01 -2.6814337280403D-01  1.5252036911206D+00
    81  8.0000000000000D-01 -2.7548605980494D-01  1.4460180259272D+00
    82  8.1000000000000D-01 -2.7975005298219D-01  1.3617032259620D+00
    83  8.2000000000000D-01 -2.8111521982606D-01  1.2730223108418D+00
    84  8.3000000000000D-01 -2.7978175729051D-01  1.1807896619860D+00
    85  8.4000000000000D-01 -2.7596737774068D-01  1.0858602885045D+00
    86  8.5000000000000D-01 -2.6990427900584D-01  9.8911827952870D-01
    87  8.6000000000000D-01 -2.6183594585487D-01  8.9146463234847D-01
    88  8.7000000000000D-01 -2.5201383357163D-01  7.9380466051722D-01
    89  8.8000000000000D-01 -2.4069398676465D-01  6.9703519712566D-01
    90  8.9000000000000D-01 -2.2813364803694D-01  6.0203181542227D-01
    91  9.0000000000000D-01 -2.1458791161751D-01  5.0963629165005D-01
    92  9.1000000000000D-01 -2.0030647650657D-01  4.2064453330726D-01
    93  9.2000000000000D-01 -1.8553055209291D-01  3.3579518993169D-01
    94  9.3000000000000D-01 -1.7048996658016D-01  2.5575915300321D-01
    95  9.4000000000000D-01 -1.5540052496274D-01  1.8113013686858D-01
    96  9.5000000000000D-01 -1.4046165876099D-01  1.1241651387648D-01
    97  9.6000000000000D-01 -1.2585440434514D-01  5.0034554523259D-02
    98  9.7000000000000D-01 -1.1173974054017D-01 -5.6968022639478D-03
    99  9.8000000000000D-01 -9.8257309421020D-02 -5.4559552070476D-02
   100  9.9000000000000D-01 -8.5524536925753D-02 -9.6438535207358D-02
   101  1.0000000000000D+00 -7.3636162096022D-02 -1.3132162127159D-01
   102  1.0100000000000D+00 -6.2664176113331D-02 -1.5929816747435D-01
   103  1.0200000000000D+00 -5.2658163990835D-02 -1.8055578539387D-01
   104  1.0300000000000D+00 -4.3646033961439D-02 -1.9537548401963D-01
   105  1.0400000000000D+00 -3.5635111899116D-02 -2.0412528971000D-01
   106  1.0500000000000D+00 -2.8613570766119D-02 -2.0725247493896D-01
   107  1.0600000000000D+00 -2.2552158061211D-02 -2.0527455758916D-01
   108  1.0700000000000D+00 -1.7406178637208D-02 -1.9876925642853D-01
   109  1.0800000000000D+00 -1.3117684135356D-02 -1.8836361447350D-01
   110  1.0900000000000D+00 -9.6178163149459D-03 -1.7472251882573D-01
   111  1.1000000000000D+00 -6.8292478728196D-03 -1.5853686121182D-01
   112  1.1100000000000D+00 -4.6686620423336D-03 -1.4051159317660D-01
   113  1.1200000000000D+00 -3.0492088153169D-03 -1.2135394652192D-01
   114  1.1300000000000D+00 -1.8828908823770D-03 -1.0176200819092D-01
   115  1.1400000000000D+00 -1.0827637120103D-03 -8.2414202088894D-02
   116  1.1500000000000D+00 -5.6516251905640D-04 -6.3958506710592D-02
   117  1.1600000000000D+00 -2.5082016238035D-04 -4.7007348327842D-02
   118  1.1700000000000D+00 -6.8569555276428D-05 -3.2118529240355D-02
   119  1.1800000000000D+00  3.9531680452066D-05 -1.9775994204325D-02
   120  1.1900000000000D+00  1.0926783155184D-04 -1.0274291241779D-02
   121  1.2000000000000D+00  1.6767604477581D-04 -4.0343585187181D-03
   122  1.2100000000000D+00  2.1738175412409D-04 -1.2337296633696D-03
   123  1.2200000000000D+00  1.2930718212940D-04 -2.7943416941186D-04
   124  1.2300000000000D+00 -8.6963113967812D-06  1.1726151901577D-05
   125  1.2400000000000D+00 -1.2748899955525D-05  1.1589164312981D-05
   126  1.2500000000000D+00  5.0263225741419D-06 -7.8293344993485D-06
   127  1.2600000000000D+00 -2.2258502552215D-07  7.9042782813604D-07
   128  1.2700000000000D+00 -3.6680963596184D-07  1.3025878232938D-06
   129  1.2800000000000D+00  0.0000000000000D+00  0.0000000000000D+00
   130  1.2900000000000D+00  0.0000000000000D+00  0.0000000000000D+00
   131  1.3000000000000D+00  0.0000000000000D+00  0.0000000000000D+00
   132  1.3100000000000D+00  0.0000000000000D+00  0.0000000000000D+00
   133  1.3200000000000D+00  0.0000000000000D+00  0.0000000000000D+00
   134  1.3300000000000D+00  0.0000000000000D+00  0.0000000000000D+00
   135  1.3400000000000D+00  0.0000000000000D+00  0.0000000000000D+00
   136  1.3500000000000D+00  0.0000000000000D+00  0.0000000000000D+00
   137  1.3600000000000D+00  0.0000000000000D+00  0.0000000000000D+00
   138  1.3700000000000D+00  0.0000000000000D+00  0.0000000000000D+00
   139  1.3800000000000D+00  0.0000000000000D+00  0.0000000000000D+00
   140  1.3900000000000D+00  0.0000000000000D+00  0.0000000000000D+00
   141  1.4000000000000D+00  0.0000000000000D+00  0.0000000000000D+00
   142  1.4100000000000D+00  0.0000000000000D+00  0.0000000000000D+00
   143  1.4200000000000D+00  0.0000000000000D+00  0.0000000000000D+00
   144  1.4300000000000D+00  0.0000000000000D+00  0.0000000000000D+00
   145  1.4400000000000D+00  0.0000000000000D+00  0.0000000000000D+00
   146  1.4500000000000D+00  0.0000000000000D+00  0.0000000000000D+00
   147  1.4600000000000D+00  0.0000000000000D+00  0.0000000000000D+00
   148  1.4700000000000D+00  0.0000000000000D+00  0.0000000000000D+00
   149  1.4800000000000D+00  0.0000000000000D+00  0.0000000000000D+00
   150  1.4900000000000D+00  0.0000000000000D+00  0.0000000000000D+00
   151  1.5000000000000D+00  0.0000000000000D+00  0.0000000000000D+00
   152  1.5100000000000D+00  0.0000000000000D+00  0.0000000000000D+00
   153  1.5200000000000D+00  0.0000000000000D+00  0.0000000000000D+00
   154  1.5300000000000D+00  0.0000000000000D+00  0.0000000000000D+00
   155  1.5400000000000D+00  0.0000000000000D+00  0.0000000000000D+00
   156  1.5500000000000D+00  0.0000000000000D+00  0.0000000000000D+00
   157  1.5600000000000D+00  0.0000000000000D+00  0.0000000000000D+00
   158  1.5700000000000D+00  0.0000000000000D+00  0.0000000000000D+00
   159  1.5800000000000D+00  0.0000000000000D+00  0.0000000000000D+00
   160  1.5900000000000D+00  0.0000000000000D+00  0.0000000000000D+00
   161  1.6000000000000D+00  0.0000000000000D+00  0.0000000000000D+00
   162  1.6100000000000D+00  0.0000000000000D+00  0.0000000000000D+00
   163  1.6200000000000D+00  0.0000000000000D+00  0.0000000000000D+00
   164  1.6300000000000D+00  0.0000000000000D+00  0.0000000000000D+00
   165  1.6400000000000D+00  0.0000000000000D+00  0.0000000000000D+00
   166  1.6500000000000D+00  0.0000000000000D+00  0.0000000000000D+00
   167  1.6600000000000D+00  0.0000000000000D+00  0.0000000000000D+00
   168  1.6700000000000D+00  0.0000000000000D+00  0.0000000000000D+00
   169  1.6800000000000D+00  0.0000000000000D+00  0.0000000000000D+00
   170  1.6900000000000D+00  0.0000000000000D+00  0.0000000000000D+00
   171  1.7000000000000D+00  0.0000000000000D+00  0.0000000000000D+00
   172  1.7100000000000D+00  0.0000000000000D+00  0.0000000000000D+00
   173  1.7200000000000D+00  0.0000000000000D+00  0.0000000000000D+00
   174  1.7300000000000D+00  0.0000000000000D+00  0.0000000000000D+00
   175  1.7400000000000D+00  0.0000000000000D+00  0.0000000000000D+00
   176  1.7500000000000D+00  0.0000000000000D+00  0.0000000000000D+00
   177  1.7600000000000D+00  0.0000000000000D+00  0.0000000000000D+00
   178  1.7700000000000D+00  0.0000000000000D+00  0.0000000000000D+00
   179  1.7800000000000D+00  0.0000000000000D+00  0.0000000000000D+00
   180  1.7900000000000D+00  0.0000000000000D+00  0.0000000000000D+00
   181  1.8000000000000D+00  0.0000000000000D+00  0.0000000000000D+00
   182  1.8100000000000D+00  0.0000000000000D+00  0.0000000000000D+00
   183  1.8200000000000D+00  0.0000000000000D+00  0.0000000000000D+00
   184  1.8300000000000D+00  0.0000000000000D+00  0.0000000000000D+00
   185  1.8400000000000D+00  0.0000000000000D+00  0.0000000000000D+00
   186  1.8500000000000D+00  0.0000000000000D+00  0.0000000000000D+00
   187  1.8600000000000D+00  0.0000000000000D+00  0.0000000000000D+00
   188  1.8700000000000D+00  0.0000000000000D+00  0.0000000000000D+00
   189  1.8800000000000D+00  0.0000000000000D+00  0.0000000000000D+00
   190  1.8900000000000D+00  0.0000000000000D+00  0.0000000000000D+00
   191  1.9000000000000D+00  0.0000000000000D+00  0.0000000000000D+00
   192  1.9100000000000D+00  0.0000000000000D+00  0.0000000000000D+00
   193  1.9200000000000D+00  0.0000000000000D+00  0.0000000000000D+00
   194  1.9300000000000D+00  0.0000000000000D+00  0.0000000000000D+00
   195  1.9400000000000D+00  0.0000000000000D+00  0.0000000000000D+00
   196  1.9500000000000D+00  0.0000000000000D+00  0.0000000000000D+00
   197  1.9600000000000D+00  0.0000000000000D+00  0.0000000000000D+00
   198  1.9700000000000D+00  0.0000000000000D+00  0.0000000000000D+00
   199  1.9800000000000D+00  0.0000000000000D+00  0.0000000000000D+00
   200  1.9900000000000D+00  0.0000000000000D+00  0.0000000000000D+00
   201  2.0000000000000D+00  0.0000000000000D+00  0.0000000000000D+00
   202  2.0100000000000D+00  0.0000000000000D+00  0.0000000000000D+00
   203  2.0200000000000D+00  0.0000000000000D+00  0.0000000000000D+00
   204  2.0300000000000D+00  0.0000000000000D+00  0.0000000000000D+00
   205  2.0400000000000D+00  0.0000000000000D+00  0.0000000000000D+00
   206  2.0500000000000D+00  0.0000000000000D+00  0.0000000000000D+00
   207  2.0600000000000D+00  0.0000000000000D+00  0.0000000000000D+00
   208  2.0700000000000D+00  0.0000000000000D+00  0.0000000000000D+00
   209  2.0800000000000D+00  0.0000000000000D+00  0.0000000000000D+00
   210  2.0900000000000D+00  0.0000000000000D+00  0.0000000000000D+00
   211  2.1000000000000D+00  0.0000000000000D+00  0.0000000000000D+00
   212  2.1100000000000D+00  0.0000000000000D+00  0.0000000000000D+00
   213  2.1200000000000D+00  0.0000000000000D+00  0.0000000000000D+00
   214  2.1300000000000D+00  0.0000000000000D+00  0.0000000000000D+00
   215  2.1400000000000D+00  0.0000000000000D+00  0.0000000000000D+00
   216  2.1500000000000D+00  0.0000000000000D+00  0.0000000000000D+00
   217  2.1600000000000D+00  0.0000000000000D+00  0.0000000000000D+00
   218  2.1700000000000D+00  0.0000000000000D+00  0.0000000000000D+00
   219  2.1800000000000D+00  0.0000000000000D+00  0.0000000000000D+00
   220  2.1900000000000D+00  0.0000000000000D+00  0.0000000000000D+00
   221  2.2000000000000D+00  0.0000000000000D+00  0.0000000000000D+00
   222  2.2100000000000D+00  0.0000000000000D+00  0.0000000000000D+00
   223  2.2200000000000D+00  0.0000000000000D+00  0.0000000000000D+00
   224  2.2300000000000D+00  0.0000000000000D+00  0.0000000000000D+00
   225  2.2400000000000D+00  0.0000000000000D+00  0.0000000000000D+00
   226  2.2500000000000D+00  0.0000000000000D+00  0.0000000000000D+00
   227  2.2600000000000D+00  0.0000000000000D+00  0.0000000000000D+00
   228  2.2700000000000D+00  0.0000000000000D+00  0.0000000000000D+00
   229  2.2800000000000D+00  0.0000000000000D+00  0.0000000000000D+00
   230  2.2900000000000D+00  0.0000000000000D+00  0.0000000000000D+00
   231  2.3000000000000D+00  0.0000000000000D+00  0.0000000000000D+00
   232  2.3100000000000D+00  0.0000000000000D+00  0.0000000000000D+00
   233  2.3200000000000D+00  0.0000000000000D+00  0.0000000000000D+00
   234  2.3300000000000D+00  0.0000000000000D+00  0.0000000000000D+00
   235  2.3400000000000D+00  0.0000000000000D+00  0.0000000000000D+00
   236  2.3500000000000D+00  0.0000000000000D+00  0.0000000000000D+00
   237  2.3600000000000D+00  0.0000000000000D+00  0.0000000000000D+00
   238  2.3700000000000D+00  0.0000000000000D+00  0.0000000000000D+00
   239  2.3800000000000D+00  0.0000000000000D+00  0.0000000000000D+00
   240  2.3900000000000D+00  0.0000000000000D+00  0.0000000000000D+00
   241  2.4000000000000D+00  0.0000000000000D+00  0.0000000000000D+00
   242  2.4100000000000D+00  0.0000000000000D+00  0.0000000000000D+00
   243  2.4200000000000D+00  0.0000000000000D+00  0.0000000000000D+00
   244  2.4300000000000D+00  0.0000000000000D+00  0.0000000000000D+00
   245  2.4400000000000D+00  0.0000000000000D+00  0.0000000000000D+00
   246  2.4500000000000D+00  0.0000000000000D+00  0.0000000000000D+00
   247  2.4600000000000D+00  0.0000000000000D+00  0.0000000000000D+00
   248  2.4700000000000D+00  0.0000000000000D+00  0.0000000000000D+00
   249  2.4800000000000D+00  0.0000000000000D+00  0.0000000000000D+00
   250  2.4900000000000D+00  0.0000000000000D+00  0.0000000000000D+00
   251  2.5000000000000D+00  0.0000000000000D+00  0.0000000000000D+00
   252  2.5100000000000D+00  0.0000000000000D+00  0.0000000000000D+00
   253  2.5200000000000D+00  0.0000000000000D+00  0.0000000000000D+00
   254  2.5300000000000D+00  0.0000000000000D+00  0.0000000000000D+00
   255  2.5400000000000D+00  0.0000000000000D+00  0.0000000000000D+00
   256  2.5500000000000D+00  0.0000000000000D+00  0.0000000000000D+00
   257  2.5600000000000D+00  0.0000000000000D+00  0.0000000000000D+00
   258  2.5700000000000D+00  0.0000000000000D+00  0.0000000000000D+00
   259  2.5800000000000D+00  0.0000000000000D+00  0.0000000000000D+00
   260  2.5900000000000D+00  0.0000000000000D+00  0.0000000000000D+00
   261  2.6000000000000D+00  0.0000000000000D+00  0.0000000000000D+00
   262  2.6100000000000D+00  0.0000000000000D+00  0.0000000000000D+00
   263  2.6200000000000D+00  0.0000000000000D+00  0.0000000000000D+00
   264  2.6300000000000D+00  0.0000000000000D+00  0.0000000000000D+00
   265  2.6400000000000D+00  0.0000000000000D+00  0.0000000000000D+00
   266  2.6500000000000D+00  0.0000000000000D+00  0.0000000000000D+00
   267  2.6600000000000D+00  0.0000000000000D+00  0.0000000000000D+00
   268  2.6700000000000D+00  0.0000000000000D+00  0.0000000000000D+00
   269  2.6800000000000D+00  0.0000000000000D+00  0.0000000000000D+00
   270  2.6900000000000D+00  0.0000000000000D+00  0.0000000000000D+00
   271  2.7000000000000D+00  0.0000000000000D+00  0.0000000000000D+00
   272  2.7100000000000D+00  0.0000000000000D+00  0.0000000000000D+00
   273  2.7200000000000D+00  0.0000000000000D+00  0.0000000000000D+00
   274  2.7300000000000D+00  0.0000000000000D+00  0.0000000000000D+00
   275  2.7400000000000D+00  0.0000000000000D+00  0.0000000000000D+00
   276  2.7500000000000D+00  0.0000000000000D+00  0.0000000000000D+00
   277  2.7600000000000D+00  0.0000000000000D+00  0.0000000000000D+00
   278  2.7700000000000D+00  0.0000000000000D+00  0.0000000000000D+00
   279  2.7800000000000D+00  0.0000000000000D+00  0.0000000000000D+00
   280  2.7900000000000D+00  0.0000000000000D+00  0.0000000000000D+00
   281  2.8000000000000D+00  0.0000000000000D+00  0.0000000000000D+00
   282  2.8100000000000D+00  0.0000000000000D+00  0.0000000000000D+00
   283  2.8200000000000D+00  0.0000000000000D+00  0.0000000000000D+00
   284  2.8300000000000D+00  0.0000000000000D+00  0.0000000000000D+00
   285  2.8400000000000D+00  0.0000000000000D+00  0.0000000000000D+00
   286  2.8500000000000D+00  0.0000000000000D+00  0.0000000000000D+00
   287  2.8600000000000D+00  0.0000000000000D+00  0.0000000000000D+00
   288  2.8700000000000D+00  0.0000000000000D+00  0.0000000000000D+00
   289  2.8800000000000D+00  0.0000000000000D+00  0.0000000000000D+00
   290  2.8900000000000D+00  0.0000000000000D+00  0.0000000000000D+00
   291  2.9000000000000D+00  0.0000000000000D+00  0.0000000000000D+00
   292  2.9100000000000D+00  0.0000000000000D+00  0.0000000000000D+00
   293  2.9200000000000D+00  0.0000000000000D+00  0.0000000000000D+00
   294  2.9300000000000D+00  0.0000000000000D+00  0.0000000000000D+00
   295  2.9400000000000D+00  0.0000000000000D+00  0.0000000000000D+00
   296  2.9500000000000D+00  0.0000000000000D+00  0.0000000000000D+00
   297  2.9600000000000D+00  0.0000000000000D+00  0.0000000000000D+00
   298  2.9700000000000D+00  0.0000000000000D+00  0.0000000000000D+00
   299  2.9800000000000D+00  0.0000000000000D+00  0.0000000000000D+00
   300  2.9900000000000D+00  0.0000000000000D+00  0.0000000000000D+00
   301  3.0000000000000D+00  0.0000000000000D+00  0.0000000000000D+00
   302  3.0100000000000D+00  0.0000000000000D+00  0.0000000000000D+00
   303  3.0200000000000D+00  0.0000000000000D+00  0.0000000000000D+00
   304  3.0300000000000D+00  0.0000000000000D+00  0.0000000000000D+00
   305  3.0400000000000D+00  0.0000000000000D+00  0.0000000000000D+00
   306  3.0500000000000D+00  0.0000000000000D+00  0.0000000000000D+00
   307  3.0600000000000D+00  0.0000000000000D+00  0.0000000000000D+00
   308  3.0700000000000D+00  0.0000000000000D+00  0.0000000000000D+00
   309  3.0800000000000D+00  0.0000000000000D+00  0.0000000000000D+00
   310  3.0900000000000D+00  0.0000000000000D+00  0.0000000000000D+00
   311  3.1000000000000D+00  0.0000000000000D+00  0.0000000000000D+00
   312  3.1100000000000D+00  0.0000000000000D+00  0.0000000000000D+00
   313  3.1200000000000D+00  0.0000000000000D+00  0.0000000000000D+00
   314  3.1300000000000D+00  0.0000000000000D+00  0.0000000000000D+00
   315  3.1400000000000D+00  0.0000000000000D+00  0.0000000000000D+00
   316  3.1500000000000D+00  0.0000000000000D+00  0.0000000000000D+00
   317  3.1600000000000D+00  0.0000000000000D+00  0.0000000000000D+00
   318  3.1700000000000D+00  0.0000000000000D+00  0.0000000000000D+00
   319  3.1800000000000D+00  0.0000000000000D+00  0.0000000000000D+00
   320  3.1900000000000D+00  0.0000000000000D+00  0.0000000000000D+00
   321  3.2000000000000D+00  0.0000000000000D+00  0.0000000000000D+00
   322  3.2100000000000D+00  0.0000000000000D+00  0.0000000000000D+00
   323  3.2200000000000D+00  0.0000000000000D+00  0.0000000000000D+00
   324  3.2300000000000D+00  0.0000000000000D+00  0.0000000000000D+00
   325  3.2400000000000D+00  0.0000000000000D+00  0.0000000000000D+00
   326  3.2500000000000D+00  0.0000000000000D+00  0.0000000000000D+00
   327  3.2600000000000D+00  0.0000000000000D+00  0.0000000000000D+00
   328  3.2700000000000D+00  0.0000000000000D+00  0.0000000000000D+00
   329  3.2800000000000D+00  0.0000000000000D+00  0.0000000000000D+00
   330  3.2900000000000D+00  0.0000000000000D+00  0.0000000000000D+00
   331  3.3000000000000D+00  0.0000000000000D+00  0.0000000000000D+00
   332  3.3100000000000D+00  0.0000000000000D+00  0.0000000000000D+00
   333  3.3200000000000D+00  0.0000000000000D+00  0.0000000000000D+00
   334  3.3300000000000D+00  0.0000000000000D+00  0.0000000000000D+00
   335  3.3400000000000D+00  0.0000000000000D+00  0.0000000000000D+00
   336  3.3500000000000D+00  0.0000000000000D+00  0.0000000000000D+00
   337  3.3600000000000D+00  0.0000000000000D+00  0.0000000000000D+00
   338  3.3700000000000D+00  0.0000000000000D+00  0.0000000000000D+00
   339  3.3800000000000D+00  0.0000000000000D+00  0.0000000000000D+00
   340  3.3900000000000D+00  0.0000000000000D+00  0.0000000000000D+00
   341  3.4000000000000D+00  0.0000000000000D+00  0.0000000000000D+00
   342  3.4100000000000D+00  0.0000000000000D+00  0.0000000000000D+00
   343  3.4200000000000D+00  0.0000000000000D+00  0.0000000000000D+00
   344  3.4300000000000D+00  0.0000000000000D+00  0.0000000000000D+00
   345  3.4400000000000D+00  0.0000000000000D+00  0.0000000000000D+00
   346  3.4500000000000D+00  0.0000000000000D+00  0.0000000000000D+00
   347  3.4600000000000D+00  0.0000000000000D+00  0.0000000000000D+00
   348  3.4700000000000D+00  0.0000000000000D+00  0.0000000000000D+00
   349  3.4800000000000D+00  0.0000000000000D+00  0.0000000000000D+00
   350  3.4900000000000D+00  0.0000000000000D+00  0.0000000000000D+00
   351  3.5000000000000D+00  0.0000000000000D+00  0.0000000000000D+00
   352  3.5100000000000D+00  0.0000000000000D+00  0.0000000000000D+00
   353  3.5200000000000D+00  0.0000000000000D+00  0.0000000000000D+00
   354  3.5300000000000D+00  0.0000000000000D+00  0.0000000000000D+00
   355  3.5400000000000D+00  0.0000000000000D+00  0.0000000000000D+00
   356  3.5500000000000D+00  0.0000000000000D+00  0.0000000000000D+00
   357  3.5600000000000D+00  0.0000000000000D+00  0.0000000000000D+00
   358  3.5700000000000D+00  0.0000000000000D+00  0.0000000000000D+00
   359  3.5800000000000D+00  0.0000000000000D+00  0.0000000000000D+00
   360  3.5900000000000D+00  0.0000000000000D+00  0.0000000000000D+00
   361  3.6000000000000D+00  0.0000000000000D+00  0.0000000000000D+00
   362  3.6100000000000D+00  0.0000000000000D+00  0.0000000000000D+00
   363  3.6200000000000D+00  0.0000000000000D+00  0.0000000000000D+00
   364  3.6300000000000D+00  0.0000000000000D+00  0.0000000000000D+00
   365  3.6400000000000D+00  0.0000000000000D+00  0.0000000000000D+00
   366  3.6500000000000D+00  0.0000000000000D+00  0.0000000000000D+00
   367  3.6600000000000D+00  0.0000000000000D+00  0.0000000000000D+00
   368  3.6700000000000D+00  0.0000000000000D+00  0.0000000000000D+00
   369  3.6800000000000D+00  0.0000000000000D+00  0.0000000000000D+00
   370  3.6900000000000D+00  0.0000000000000D+00  0.0000000000000D+00
   371  3.7000000000000D+00  0.0000000000000D+00  0.0000000000000D+00
   372  3.7100000000000D+00  0.0000000000000D+00  0.0000000000000D+00
   373  3.7200000000000D+00  0.0000000000000D+00  0.0000000000000D+00
   374  3.7300000000000D+00  0.0000000000000D+00  0.0000000000000D+00
   375  3.7400000000000D+00  0.0000000000000D+00  0.0000000000000D+00
   376  3.7500000000000D+00  0.0000000000000D+00  0.0000000000000D+00
   377  3.7600000000000D+00  0.0000000000000D+00  0.0000000000000D+00
   378  3.7700000000000D+00  0.0000000000000D+00  0.0000000000000D+00
   379  3.7800000000000D+00  0.0000000000000D+00  0.0000000000000D+00
   380  3.7900000000000D+00  0.0000000000000D+00  0.0000000000000D+00
   381  3.8000000000000D+00  0.0000000000000D+00  0.0000000000000D+00
   382  3.8100000000000D+00  0.0000000000000D+00  0.0000000000000D+00
   383  3.8200000000000D+00  0.0000000000000D+00  0.0000000000000D+00
   384  3.8300000000000D+00  0.0000000000000D+00  0.0000000000000D+00
   385  3.8400000000000D+00  0.0000000000000D+00  0.0000000000000D+00
   386  3.8500000000000D+00  0.0000000000000D+00  0.0000000000000D+00
   387  3.8600000000000D+00  0.0000000000000D+00  0.0000000000000D+00
   388  3.8700000000000D+00  0.0000000000000D+00  0.0000000000000D+00
   389  3.8800000000000D+00  0.0000000000000D+00  0.0000000000000D+00
   390  3.8900000000000D+00  0.0000000000000D+00  0.0000000000000D+00
   391  3.9000000000000D+00  0.0000000000000D+00  0.0000000000000D+00
   392  3.9100000000000D+00  0.0000000000000D+00  0.0000000000000D+00
   393  3.9200000000000D+00  0.0000000000000D+00  0.0000000000000D+00
   394  3.9300000000000D+00  0.0000000000000D+00  0.0000000000000D+00
   395  3.9400000000000D+00  0.0000000000000D+00  0.0000000000000D+00
   396  3.9500000000000D+00  0.0000000000000D+00  0.0000000000000D+00
   397  3.9600000000000D+00  0.0000000000000D+00  0.0000000000000D+00
   398  3.9700000000000D+00  0.0000000000000D+00  0.0000000000000D+00
   399  3.9800000000000D+00  0.0000000000000D+00  0.0000000000000D+00
   400  3.9900000000000D+00  0.0000000000000D+00  0.0000000000000D+00
   401  4.0000000000000D+00  0.0000000000000D+00  0.0000000000000D+00
   402  4.0100000000000D+00  0.0000000000000D+00  0.0000000000000D+00
   403  4.0200000000000D+00  0.0000000000000D+00  0.0000000000000D+00
   404  4.0300000000000D+00  0.0000000000000D+00  0.0000000000000D+00
   405  4.0400000000000D+00  0.0000000000000D+00  0.0000000000000D+00
   406  4.0500000000000D+00  0.0000000000000D+00  0.0000000000000D+00
   407  4.0600000000000D+00  0.0000000000000D+00  0.0000000000000D+00
   408  4.0700000000000D+00  0.0000000000000D+00  0.0000000000000D+00
   409  4.0800000000000D+00  0.0000000000000D+00  0.0000000000000D+00
   410  4.0900000000000D+00  0.0000000000000D+00  0.0000000000000D+00
   411  4.1000000000000D+00  0.0000000000000D+00  0.0000000000000D+00
   412  4.1100000000000D+00  0.0000000000000D+00  0.0000000000000D+00
   413  4.1200000000000D+00  0.0000000000000D+00  0.0000000000000D+00
   414  4.1300000000000D+00  0.0000000000000D+00  0.0000000000000D+00
   415  4.1400000000000D+00  0.0000000000000D+00  0.0000000000000D+00
   416  4.1500000000000D+00  0.0000000000000D+00  0.0000000000000D+00
   417  4.1600000000000D+00  0.0000000000000D+00  0.0000000000000D+00
   418  4.1700000000000D+00  0.0000000000000D+00  0.0000000000000D+00
   419  4.1800000000000D+00  0.0000000000000D+00  0.0000000000000D+00
   420  4.1900000000000D+00  0.0000000000000D+00  0.0000000000000D+00
   421  4.2000000000000D+00  0.0000000000000D+00  0.0000000000000D+00
   422  4.2100000000000D+00  0.0000000000000D+00  0.0000000000000D+00