Cd    ONCVPSP-3.3.0  r_core=   1.25838   1.30423   1.35174
     48.0000     20.0000      220117    zatom,zion,pspd
     8      11   2     4   600     0    pspcod,pspxc,lmax,lloc,mmax,r2well
  5.99000000  0.00000000  0.00000000    rchrg fchrg qchrg
     2     2     2     0     0    nproj
     1     1           extension_switch
   0                         5.1917190356079D+01  3.5342343000995D+00
     1  0.0000000000000D+00 -4.5714780849693D-09  8.2838627901705D-09
     2  1.0000000000000D-02  1.1010629761105D-01 -2.9198056479614D-02
     3  2.0000000000000D-02  2.1972273677534D-01 -5.7925260612368D-02
     4  3.0000000000000D-02  3.2836364804642D-01 -8.5717166132838D-02
     5  4.0000000000000D-02  4.3555167628082D-01 -1.1212202604744D-01
     6  5.0000000000000D-02  5.4082177974527D-01 -1.3670686221669D-01
     7  6.0000000000000D-02  6.4372504290736D-01 -1.5906320491823D-01
     8  7.0000000000000D-02  7.4383224629623D-01 -1.7881240233534D-01
     9  8.0000000000000D-02  8.4073714139140D-01 -1.9561040819950D-01
    10  9.0000000000000D-02  9.3405938404439D-01 -2.0915196586770D-01
    11  1.0000000000000D-01  1.0234470863539D+00 -2.1917411874422D-01
    12  1.1000000000000D-01  1.1085789540749D+00 -2.2545898993647D-01
    13  1.2000000000000D-01  1.1891659844100D+00 -2.2783578811756D-01
    14  1.3000000000000D-01  1.2649527072527D+00 -2.2618201148057D-01
    15  1.4000000000000D-01  1.3357179614720D+00 -2.2042383712411D-01
    16  1.5000000000000D-01  1.4012752064785D+00 -2.1053569890464D-01
    17  1.6000000000000D-01  1.4614723779225D+00 -1.9653907242357D-01
    18  1.7000000000000D-01  1.5161913047801D+00 -1.7850050108032D-01
    19  1.8000000000000D-01  1.5653467131163D+00 -1.5652891171723D-01
    20  1.9000000000000D-01  1.6088848493182D+00 -1.3077228202046D-01
    21  2.0000000000000D-01  1.6467817624113D+00 -1.0141373425262D-01
    22  2.1000000000000D-01  1.6790412910841D+00 -6.8667140828291D-02
    23  2.2000000000000D-01  1.7056928061107D+00 -3.2772336483867D-02
    24  2.3000000000000D-01  1.7267887628981D+00  6.0099608527756D-03
    25  2.4000000000000D-01  1.7424021217848D+00  4.7403413072420D-02
    26  2.5000000000000D-01  1.7526236954420D+00  9.1121398192618D-02
    27  2.6000000000000D-01  1.7575594832216D+00  1.3687230844939D-01
    28  2.7000000000000D-01  1.7573280515516D+00  1.8436469998401D-01
    29  2.8000000000000D-01  1.7520580175030D+00  2.3331218750691D-01
    30  2.9000000000000D-01  1.7418856894781D+00  2.8343798308125D-01
    31  3.0000000000000D-01  1.7269529146607D+00  3.3447898601522D-01
    32  3.1000000000000D-01  1.7074051774924D+00  3.8618934064498D-01
    33  3.2000000000000D-01  1.6833899871149D+00  4.3834339034554D-01
    34  3.3000000000000D-01  1.6550555845570D+00  4.9073796920727D-01
    35  3.4000000000000D-01  1.6225499925882D+00  5.4319398720980D-01
    36  3.5000000000000D-01  1.5860204227744D+00  5.9555728013333D-01
    37  3.6000000000000D-01  1.5456130455077D+00  6.4769871156868D-01
    38  3.7000000000000D-01  1.5014731198363D+00  6.9951353090097D-01
    39  3.8000000000000D-01  1.4537454709606D+00  7.5092000771786D-01
    40  3.9000000000000D-01  1.4025752944866D+00  8.0185737939453D-01
    41  4.0000000000000D-01  1.3481092581126D+00  8.5228316430100D-01
    42  4.1000000000000D-01  1.2904968635593D+00  9.0216990783400D-01
    43  4.2000000000000D-01  1.2298920243980D+00  9.5150144198512D-01
    44  4.3000000000000D-01  1.1664548091579D+00  1.0002687511262D+00
    45  4.4000000000000D-01  1.1003532938380D+00  1.0484655468574D+00
    46  4.5000000000000D-01  1.0317654638395D+00  1.0960836628906D+00
    47  4.6000000000000D-01  9.6088110247954D-01  1.1431083868333D+00
    48  4.7000000000000D-01  8.8790360172509D-01  1.1895138492449D+00
    49  4.8000000000000D-01  8.1305163065003D-01  1.2352585913492D+00
    50  4.9000000000000D-01  7.3656059840789D-01  1.2802814312372D+00
    51  5.0000000000000D-01  6.5868385121495D-01  1.3244977442841D+00
    52  5.1000000000000D-01  5.7969354693767D-01  1.3677962668623D+00
    53  5.2000000000000D-01  4.9988115630823D-01  1.4100365233607D+00
    54  5.3000000000000D-01  4.1955754647891D-01  1.4510469651486D+00
    55  5.4000000000000D-01  3.3905261045130D-01  1.4906238966478D+00
    56  5.5000000000000D-01  2.5871441473762D-01  1.5285312483527D+00
    57  5.6000000000000D-01  1.7890784730319D-01  1.5645012396707D+00
    58  5.7000000000000D-01  1.0001275815775D-01  1.5982359562905D+00
    59  5.8000000000000D-01  2.2421595804665D-02  1.6294098475805D+00
    60  5.9000000000000D-01 -5.3463446199286D-02  1.6576731298643D+00
    61  6.0000000000000D-01 -1.2723374716464D-01  1.6826560614558D+00
    62  6.1000000000000D-01 -1.9847800536889D-01  1.7039740357375D+00
    63  6.2000000000000D-01 -2.6678636544954D-01  1.7212334194096D+00
    64  6.3000000000000D-01 -3.3175487035144D-01  1.7340380450810D+00
    65  6.4000000000000D-01 -3.9299017198982D-01  1.7419962506544D+00
    66  6.5000000000000D-01 -4.5011442678134D-01  1.7447283430763D+00
    67  6.6000000000000D-01 -5.0277029542355D-01  1.7418743512649D+00
    68  6.7000000000000D-01 -5.5062596087669D-01  1.7331019225553D+00
    69  6.8000000000000D-01 -5.9338007466512D-01  1.7181142092965D+00
    70  6.9000000000000D-01 -6.3076653939787D-01  1.6966575873280D+00
    71  7.0000000000000D-01 -6.6255903492779D-01  1.6685290461889D+00
    72  7.1000000000000D-01 -6.8857519688247D-01  1.6335830921742D+00
    73  7.2000000000000D-01 -7.0868035941079D-01  1.5917380097771D+00
    74  7.3000000000000D-01 -7.2279077890097D-01  1.5429813346464D+00
    75  7.4000000000000D-01 -7.3087626202560D-01  1.4873744017733D+00
    76  7.5000000000000D-01 -7.3296212980163D-01  1.4250558462765D+00
    77  7.6000000000000D-01 -7.2913045912984D-01  1.3562439503917D+00
    78  7.7000000000000D-01 -7.1952055447878D-01  1.2812377490627D+00
    79  7.8000000000000D-01 -7.0432861475493D-01  1.2004168274492D+00
    80  7.9000000000000D-01 -6.8380657376520D-01  1.1142397663879D+00
    81  8.0000000000000D-01 -6.5826010679009D-01  1.0232412159531D+00
    82  8.1000000000000D-01 -6.2804581041022D-01  9.2802760236042D-01
    83  8.2000000000000D-01 -5.9356757755801D-01  8.2927149899496D-01
    84  8.3000000000000D-01 -5.5527220458526D-01  7.2770471795944D-01
    85  8.4000000000000D-01 -5.1364428162734D-01  6.2411020366984D-01
    86  8.5000000000000D-01 -4.6920043140914D-01  5.1931283415124D-01
    87  8.6000000000000D-01 -4.2248297465392D-01  4.1416925842111D-01
    88  8.7000000000000D-01 -3.7405311212117D-01  3.0955691915277D-01
    89  8.8000000000000D-01 -3.2448372378528D-01  2.0636242829020D-01
    90  8.9000000000000D-01 -2.7435189454587D-01  1.0546947903081D-01
    91  9.0000000000000D-01 -2.2423128294111D-01  7.7464902675791D-03
    92  9.1000000000000D-01 -1.7468445442678D-01 -8.5965811156867D-02
    93  9.2000000000000D-01 -1.2625530381245D-01 -1.7486665931663D-01
    94  9.3000000000000D-01 -7.9461692240389D-02 -2.5820715626036D-01
    95  9.4000000000000D-01 -3.4788422655596D-02 -3.3530160633007D-01
    96  9.5000000000000D-01  7.3193259892882D-03 -4.0553807273405D-01
    97  9.6000000000000D-01  4.6461991491089D-02 -4.6838796117338D-01
    98  9.7000000000000D-01  8.2290941917403D-02 -5.2341444889158D-01
    99  9.8000000000000D-01  1.1451301385110D-01 -5.7027959466130D-01
   100  9.9000000000000D-01  1.4289419132195D-01 -6.0874998559489D-01
   101  1.0000000000000D+00  1.6726235543337D-01 -6.3870080059610D-01
   102  1.0100000000000D+00  1.8750904935488D-01 -6.6011819532113D-01
   103  1.0200000000000D+00  2.0359022039614D-01 -6.7309994270965D-01
   104  1.0300000000000D+00  2.1552591809277D-01 -6.7785429268780D-01
   105  1.0400000000000D+00  2.2339894524346D-01 -6.7469704559747D-01
   106  1.0500000000000D+00  2.2735247718266D-01 -6.6404686547700D-01
   107  1.0600000000000D+00  2.2758668368189D-01 -6.4641889224993D-01
   108  1.0700000000000D+00  2.2435440407724D-01 -6.2241673982618D-01
   109  1.0800000000000D+00  2.1795594591938D-01 -5.9272300113401D-01
   110  1.0900000000000D+00  2.0873309231486D-01 -5.5808840680873D-01
   111  1.1000000000000D+00  1.9706241876359D-01 -5.1931981131064D-01
   112  1.1100000000000D+00  1.8334803388667D-01 -4.7726720377577D-01
   113  1.1200000000000D+00  1.6801386916656D-01 -4.3280995949027D-01
   114  1.1300000000000D+00  1.5149565432228D-01 -3.8684256783635D-01
   115  1.1400000000000D+00  1.3423272073927D-01 -3.4026008263744D-01
   116  1.1500000000000D+00  1.1665978057645D-01 -2.9394354990175D-01
   117  1.1600000000000D+00  9.9198832112923D-02 -2.4874567309678D-01
   118  1.1700000000000D+00  8.2251341793294D-02 -2.0547697599502D-01
   119  1.1800000000000D+00  6.6190849856469D-02 -1.6489271698935D-01
   120  1.1900000000000D+00  5.1356141259803D-02 -1.2768079987924D-01
   121  1.2000000000000D+00  3.8045118039900D-02 -9.4450916534918D-02
   122  1.2100000000000D+00  2.6509496168830D-02 -6.5725134251269D-02
   123  1.2200000000000D+00  1.6956201742590D-02 -4.1943990507102D-02
   124  1.2300000000000D+00  9.5051947408600D-03 -2.3367885194540D-02
   125  1.2400000000000D+00  4.2615415540380D-03 -1.0250155853905D-02
   126  1.2500000000000D+00  1.4741594020939D-03 -3.1929991891122D-03
   127  1.2600000000000D+00  4.3998002934735D-04 -6.6289071852975D-04
   128  1.2700000000000D+00  5.6203604377525D-05 -3.7709099486657D-05
   129  1.2800000000000D+00 -2.0575992224647D-05 -3.8625884831747D-07
   130  1.2900000000000D+00  2.0316528636862D-06 -1.5242227117727D-06
   131  1.3000000000000D+00  4.1780986397205D-06 -2.3705924078497D-06
   132  1.3100000000000D+00 -1.4812082719360D-06  2.4223281919156D-06
   133  1.3200000000000D+00  0.0000000000000D+00  0.0000000000000D+00
   134  1.3300000000000D+00  0.0000000000000D+00  0.0000000000000D+00
   135  1.3400000000000D+00  0.0000000000000D+00  0.0000000000000D+00
   136  1.3500000000000D+00  0.0000000000000D+00  0.0000000000000D+00
   137  1.3600000000000D+00  0.0000000000000D+00  0.0000000000000D+00
   138  1.3700000000000D+00  0.0000000000000D+00  0.0000000000000D+00
   139  1.3800000000000D+00  0.0000000000000D+00  0.0000000000000D+00
   140  1.3900000000000D+00  0.0000000000000D+00  0.0000000000000D+00
   141  1.4000000000000D+00  0.0000000000000D+00  0.0000000000000D+00
   142  1.4100000000000D+00  0.0000000000000D+00  0.0000000000000D+00
   143  1.4200000000000D+00  0.0000000000000D+00  0.0000000000000D+00
   144  1.4300000000000D+00  0.0000000000000D+00  0.0000000000000D+00
   145  1.4400000000000D+00  0.0000000000000D+00  0.0000000000000D+00
   146  1.4500000000000D+00  0.0000000000000D+00  0.0000000000000D+00
   147  1.4600000000000D+00  0.0000000000000D+00  0.0000000000000D+00
   148  1.4700000000000D+00  0.0000000000000D+00  0.0000000000000D+00
   149  1.4800000000000D+00  0.0000000000000D+00  0.0000000000000D+00
   150  1.4900000000000D+00  0.0000000000000D+00  0.0000000000000D+00
   151  1.5000000000000D+00  0.0000000000000D+00  0.0000000000000D+00
   152  1.5100000000000D+00  0.0000000000000D+00  0.0000000000000D+00
   153  1.5200000000000D+00  0.0000000000000D+00  0.0000000000000D+00
   154  1.5300000000000D+00  0.0000000000000D+00  0.0000000000000D+00
   155  1.5400000000000D+00  0.0000000000000D+00  0.0000000000000D+00
   156  1.5500000000000D+00  0.0000000000000D+00  0.0000000000000D+00
   157  1.5600000000000D+00  0.0000000000000D+00  0.0000000000000D+00
   158  1.5700000000000D+00  0.0000000000000D+00  0.0000000000000D+00
   159  1.5800000000000D+00  0.0000000000000D+00  0.0000000000000D+00
   160  1.5900000000000D+00  0.0000000000000D+00  0.0000000000000D+00
   161  1.6000000000000D+00  0.0000000000000D+00  0.0000000000000D+00
   162  1.6100000000000D+00  0.0000000000000D+00  0.0000000000000D+00
   163  1.6200000000000D+00  0.0000000000000D+00  0.0000000000000D+00
   164  1.6300000000000D+00  0.0000000000000D+00  0.0000000000000D+00
   165  1.6400000000000D+00  0.0000000000000D+00  0.0000000000000D+00
   166  1.6500000000000D+00  0.0000000000000D+00  0.0000000000000D+00
   167  1.6600000000000D+00  0.0000000000000D+00  0.0000000000000D+00
   168  1.6700000000000D+00  0.0000000000000D+00  0.0000000000000D+00
   169  1.6800000000000D+00  0.0000000000000D+00  0.0000000000000D+00
   170  1.6900000000000D+00  0.0000000000000D+00  0.0000000000000D+00
   171  1.7000000000000D+00  0.0000000000000D+00  0.0000000000000D+00
   172  1.7100000000000D+00  0.0000000000000D+00  0.0000000000000D+00
   173  1.7200000000000D+00  0.0000000000000D+00  0.0000000000000D+00
   174  1.7300000000000D+00  0.0000000000000D+00  0.0000000000000D+00
   175  1.7400000000000D+00  0.0000000000000D+00  0.0000000000000D+00
   176  1.7500000000000D+00  0.0000000000000D+00  0.0000000000000D+00
   177  1.7600000000000D+00  0.0000000000000D+00  0.0000000000000D+00
   178  1.7700000000000D+00  0.0000000000000D+00  0.0000000000000D+00
   179  1.7800000000000D+00  0.0000000000000D+00  0.0000000000000D+00
   180  1.7900000000000D+00  0.0000000000000D+00  0.0000000000000D+00
   181  1.8000000000000D+00  0.0000000000000D+00  0.0000000000000D+00
   182  1.8100000000000D+00  0.0000000000000D+00  0.0000000000000D+00
   183  1.8200000000000D+00  0.0000000000000D+00  0.0000000000000D+00
   184  1.8300000000000D+00  0.0000000000000D+00  0.0000000000000D+00
   185  1.8400000000000D+00  0.0000000000000D+00  0.0000000000000D+00
   186  1.8500000000000D+00  0.0000000000000D+00  0.0000000000000D+00
   187  1.8600000000000D+00  0.0000000000000D+00  0.0000000000000D+00
   188  1.8700000000000D+00  0.0000000000000D+00  0.0000000000000D+00
   189  1.8800000000000D+00  0.0000000000000D+00  0.0000000000000D+00
   190  1.8900000000000D+00  0.0000000000000D+00  0.0000000000000D+00
   191  1.9000000000000D+00  0.0000000000000D+00  0.0000000000000D+00
   192  1.9100000000000D+00  0.0000000000000D+00  0.0000000000000D+00
   193  1.9200000000000D+00  0.0000000000000D+00  0.0000000000000D+00
   194  1.9300000000000D+00  0.0000000000000D+00  0.0000000000000D+00
   195  1.9400000000000D+00  0.0000000000000D+00  0.0000000000000D+00
   196  1.9500000000000D+00  0.0000000000000D+00  0.0000000000000D+00
   197  1.9600000000000D+00  0.0000000000000D+00  0.0000000000000D+00
   198  1.9700000000000D+00  0.0000000000000D+00  0.0000000000000D+00
   199  1.9800000000000D+00  0.0000000000000D+00  0.0000000000000D+00
   200  1.9900000000000D+00  0.0000000000000D+00  0.0000000000000D+00
   201  2.0000000000000D+00  0.0000000000000D+00  0.0000000000000D+00
   202  2.0100000000000D+00  0.0000000000000D+00  0.0000000000000D+00
   203  2.0200000000000D+00  0.0000000000000D+00  0.0000000000000D+00
   204  2.0300000000000D+00  0.0000000000000D+00  0.0000000000000D+00
   205  2.0400000000000D+00  0.0000000000000D+00  0.0000000000000D+00
   206  2.0500000000000D+00  0.0000000000000D+00  0.0000000000000D+00
   207  2.0600000000000D+00  0.0000000000000D+00  0.0000000000000D+00
   208  2.0700000000000D+00  0.0000000000000D+00  0.0000000000000D+00
   209  2.0800000000000D+00  0.0000000000000D+00  0.0000000000000D+00
   210  2.0900000000000D+00  0.0000000000000D+00  0.0000000000000D+00
   211  2.1000000000000D+00  0.0000000000000D+00  0.0000000000000D+00
   212  2.1100000000000D+00  0.0000000000000D+00  0.0000000000000D+00
   213  2.1200000000000D+00  0.0000000000000D+00  0.0000000000000D+00
   214  2.1300000000000D+00  0.0000000000000D+00  0.0000000000000D+00
   215  2.1400000000000D+00  0.0000000000000D+00  0.0000000000000D+00
   216  2.1500000000000D+00  0.0000000000000D+00  0.0000000000000D+00
   217  2.1600000000000D+00  0.0000000000000D+00  0.0000000000000D+00
   218  2.1700000000000D+00  0.0000000000000D+00  0.0000000000000D+00
   219  2.1800000000000D+00  0.0000000000000D+00  0.0000000000000D+00
   220  2.1900000000000D+00  0.0000000000000D+00  0.0000000000000D+00
   221  2.2000000000000D+00  0.0000000000000D+00  0.0000000000000D+00
   222  2.2100000000000D+00  0.0000000000000D+00  0.0000000000000D+00
   223  2.2200000000000D+00  0.0000000000000D+00  0.0000000000000D+00
   224  2.2300000000000D+00  0.0000000000000D+00  0.0000000000000D+00
   225  2.2400000000000D+00  0.0000000000000D+00  0.0000000000000D+00
   226  2.2500000000000D+00  0.0000000000000D+00  0.0000000000000D+00
   227  2.2600000000000D+00  0.0000000000000D+00  0.0000000000000D+00
   228  2.2700000000000D+00  0.0000000000000D+00  0.0000000000000D+00
   229  2.2800000000000D+00  0.0000000000000D+00  0.0000000000000D+00
   230  2.2900000000000D+00  0.0000000000000D+00  0.0000000000000D+00
   231  2.3000000000000D+00  0.0000000000000D+00  0.0000000000000D+00
   232  2.3100000000000D+00  0.0000000000000D+00  0.0000000000000D+00
   233  2.3200000000000D+00  0.0000000000000D+00  0.0000000000000D+00
   234  2.3300000000000D+00  0.0000000000000D+00  0.0000000000000D+00
   235  2.3400000000000D+00  0.0000000000000D+00  0.0000000000000D+00
   236  2.3500000000000D+00  0.0000000000000D+00  0.0000000000000D+00
   237  2.3600000000000D+00  0.0000000000000D+00  0.0000000000000D+00
   238  2.3700000000000D+00  0.0000000000000D+00  0.0000000000000D+00
   239  2.3800000000000D+00  0.0000000000000D+00  0.0000000000000D+00
   240  2.3900000000000D+00  0.0000000000000D+00  0.0000000000000D+00
   241  2.4000000000000D+00  0.0000000000000D+00  0.0000000000000D+00
   242  2.4100000000000D+00  0.0000000000000D+00  0.0000000000000D+00
   243  2.4200000000000D+00  0.0000000000000D+00  0.0000000000000D+00
   244  2.4300000000000D+00  0.0000000000000D+00  0.0000000000000D+00
   245  2.4400000000000D+00  0.0000000000000D+00  0.0000000000000D+00
   246  2.4500000000000D+00  0.0000000000000D+00  0.0000000000000D+00
   247  2.4600000000000D+00  0.0000000000000D+00  0.0000000000000D+00
   248  2.4700000000000D+00  0.0000000000000D+00  0.0000000000000D+00
   249  2.4800000000000D+00  0.0000000000000D+00  0.0000000000000D+00
   250  2.4900000000000D+00  0.0000000000000D+00  0.0000000000000D+00
   251  2.5000000000000D+00  0.0000000000000D+00  0.0000000000000D+00
   252  2.5100000000000D+00  0.0000000000000D+00  0.0000000000000D+00
   253  2.5200000000000D+00  0.0000000000000D+00  0.0000000000000D+00
   254  2.5300000000000D+00  0.0000000000000D+00  0.0000000000000D+00
   255  2.5400000000000D+00  0.0000000000000D+00  0.0000000000000D+00
   256  2.5500000000000D+00  0.0000000000000D+00  0.0000000000000D+00
   257  2.5600000000000D+00  0.0000000000000D+00  0.0000000000000D+00
   258  2.5700000000000D+00  0.0000000000000D+00  0.0000000000000D+00
   259  2.5800000000000D+00  0.0000000000000D+00  0.0000000000000D+00
   260  2.5900000000000D+00  0.0000000000000D+00  0.0000000000000D+00
   261  2.6000000000000D+00  0.0000000000000D+00  0.0000000000000D+00
   262  2.6100000000000D+00  0.0000000000000D+00  0.0000000000000D+00
   263  2.6200000000000D+00  0.0000000000000D+00  0.0000000000000D+00
   264  2.6300000000000D+00  0.0000000000000D+00  0.0000000000000D+00
   265  2.6400000000000D+00  0.0000000000000D+00  0.0000000000000D+00
   266  2.6500000000000D+00  0.0000000000000D+00  0.0000000000000D+00
   267  2.6600000000000D+00  0.0000000000000D+00  0.0000000000000D+00
   268  2.6700000000000D+00  0.0000000000000D+00  0.0000000000000D+00
   269  2.6800000000000D+00  0.0000000000000D+00  0.0000000000000D+00
   270  2.6900000000000D+00  0.0000000000000D+00  0.0000000000000D+00
   271  2.7000000000000D+00  0.0000000000000D+00  0.0000000000000D+00
   272  2.7100000000000D+00  0.0000000000000D+00  0.0000000000000D+00
   273  2.7200000000000D+00  0.0000000000000D+00  0.0000000000000D+00
   274  2.7300000000000D+00  0.0000000000000D+00  0.0000000000000D+00
   275  2.7400000000000D+00  0.0000000000000D+00  0.0000000000000D+00
   276  2.7500000000000D+00  0.0000000000000D+00  0.0000000000000D+00
   277  2.7600000000000D+00  0.0000000000000D+00  0.0000000000000D+00
   278  2.7700000000000D+00  0.0000000000000D+00  0.0000000000000D+00
   279  2.7800000000000D+00  0.0000000000000D+00  0.0000000000000D+00
   280  2.7900000000000D+00  0.0000000000000D+00  0.0000000000000D+00
   281  2.8000000000000D+00  0.0000000000000D+00  0.0000000000000D+00
   282  2.8100000000000D+00  0.0000000000000D+00  0.0000000000000D+00
   283  2.8200000000000D+00  0.0000000000000D+00  0.0000000000000D+00
   284  2.8300000000000D+00  0.0000000000000D+00  0.0000000000000D+00
   285  2.8400000000000D+00  0.0000000000000D+00  0.0000000000000D+00
   286  2.8500000000000D+00  0.0000000000000D+00  0.0000000000000D+00
   287  2.8600000000000D+00  0.0000000000000D+00  0.0000000000000D+00
   288  2.8700000000000D+00  0.0000000000000D+00  0.0000000000000D+00
   289  2.8800000000000D+00  0.0000000000000D+00  0.0000000000000D+00
   290  2.8900000000000D+00  0.0000000000000D+00  0.0000000000000D+00
   291  2.9000000000000D+00  0.0000000000000D+00  0.0000000000000D+00
   292  2.9100000000000D+00  0.0000000000000D+00  0.0000000000000D+00
   293  2.9200000000000D+00  0.0000000000000D+00  0.0000000000000D+00
   294  2.9300000000000D+00  0.0000000000000D+00  0.0000000000000D+00
   295  2.9400000000000D+00  0.0000000000000D+00  0.0000000000000D+00
   296  2.9500000000000D+00  0.0000000000000D+00  0.0000000000000D+00
   297  2.9600000000000D+00  0.0000000000000D+00  0.0000000000000D+00
   298  2.9700000000000D+00  0.0000000000000D+00  0.0000000000000D+00
   299  2.9800000000000D+00  0.0000000000000D+00  0.0000000000000D+00
   300  2.9900000000000D+00  0.0000000000000D+00  0.0000000000000D+00
   301  3.0000000000000D+00  0.0000000000000D+00  0.0000000000000D+00
   302  3.0100000000000D+00  0.0000000000000D+00  0.0000000000000D+00
   303  3.0200000000000D+00  0.0000000000000D+00  0.0000000000000D+00
   304  3.0300000000000D+00  0.0000000000000D+00  0.0000000000000D+00
   305  3.0400000000000D+00  0.0000000000000D+00  0.0000000000000D+00
   306  3.0500000000000D+00  0.0000000000000D+00  0.0000000000000D+00
   307  3.0600000000000D+00  0.0000000000000D+00  0.0000000000000D+00
   308  3.0700000000000D+00  0.0000000000000D+00  0.0000000000000D+00
   309  3.0800000000000D+00  0.0000000000000D+00  0.0000000000000D+00
   310  3.0900000000000D+00  0.0000000000000D+00  0.0000000000000D+00
   311  3.1000000000000D+00  0.0000000000000D+00  0.0000000000000D+00
   312  3.1100000000000D+00  0.0000000000000D+00  0.0000000000000D+00
   313  3.1200000000000D+00  0.0000000000000D+00  0.0000000000000D+00
   314  3.1300000000000D+00  0.0000000000000D+00  0.0000000000000D+00
   315  3.1400000000000D+00  0.0000000000000D+00  0.0000000000000D+00
   316  3.1500000000000D+00  0.0000000000000D+00  0.0000000000000D+00
   317  3.1600000000000D+00  0.0000000000000D+00  0.0000000000000D+00
   318  3.1700000000000D+00  0.0000000000000D+00  0.0000000000000D+00
   319  3.1800000000000D+00  0.0000000000000D+00  0.0000000000000D+00
   320  3.1900000000000D+00  0.0000000000000D+00  0.0000000000000D+00
   321  3.2000000000000D+00  0.0000000000000D+00  0.0000000000000D+00
   322  3.2100000000000D+00  0.0000000000000D+00  0.0000000000000D+00
   323  3.2200000000000D+00  0.0000000000000D+00  0.0000000000000D+00
   324  3.2300000000000D+00  0.0000000000000D+00  0.0000000000000D+00
   325  3.2400000000000D+00  0.0000000000000D+00  0.0000000000000D+00
   326  3.2500000000000D+00  0.0000000000000D+00  0.0000000000000D+00
   327  3.2600000000000D+00  0.0000000000000D+00  0.0000000000000D+00
   328  3.2700000000000D+00  0.0000000000000D+00  0.0000000000000D+00
   329  3.2800000000000D+00  0.0000000000000D+00  0.0000000000000D+00
   330  3.2900000000000D+00  0.0000000000000D+00  0.0000000000000D+00
   331  3.3000000000000D+00  0.0000000000000D+00  0.0000000000000D+00
   332  3.3100000000000D+00  0.0000000000000D+00  0.0000000000000D+00
   333  3.3200000000000D+00  0.0000000000000D+00  0.0000000000000D+00
   334  3.3300000000000D+00  0.0000000000000D+00  0.0000000000000D+00
   335  3.3400000000000D+00  0.0000000000000D+00  0.0000000000000D+00
   336  3.3500000000000D+00  0.0000000000000D+00  0.0000000000000D+00
   337  3.3600000000000D+00  0.0000000000000D+00  0.0000000000000D+00
   338  3.3700000000000D+00  0.0000000000000D+00  0.0000000000000D+00
   339  3.3800000000000D+00  0.0000000000000D+00  0.0000000000000D+00
   340  3.3900000000000D+00  0.0000000000000D+00  0.0000000000000D+00
   341  3.4000000000000D+00  0.0000000000000D+00  0.0000000000000D+00
   342  3.4100000000000D+00  0.0000000000000D+00  0.0000000000000D+00
   343  3.4200000000000D+00  0.0000000000000D+00  0.0000000000000D+00
   344  3.4300000000000D+00  0.0000000000000D+00  0.0000000000000D+00
   345  3.4400000000000D+00  0.0000000000000D+00  0.0000000000000D+00
   346  3.4500000000000D+00  0.0000000000000D+00  0.0000000000000D+00
   347  3.4600000000000D+00  0.0000000000000D+00  0.0000000000000D+00
   348  3.4700000000000D+00  0.0000000000000D+00  0.0000000000000D+00
   349  3.4800000000000D+00  0.0000000000000D+00  0.0000000000000D+00
   350  3.4900000000000D+00  0.0000000000000D+00  0.0000000000000D+00
   351  3.5000000000000D+00  0.0000000000000D+00  0.0000000000000D+00
   352  3.5100000000000D+00  0.0000000000000D+00  0.0000000000000D+00
   353  3.5200000000000D+00  0.0000000000000D+00  0.0000000000000D+00
   354  3.5300000000000D+00  0.0000000000000D+00  0.0000000000000D+00
   355  3.5400000000000D+00  0.0000000000000D+00  0.0000000000000D+00
   356  3.5500000000000D+00  0.0000000000000D+00  0.0000000000000D+00
   357  3.5600000000000D+00  0.0000000000000D+00  0.0000000000000D+00
   358  3.5700000000000D+00  0.0000000000000D+00  0.0000000000000D+00
   359  3.5800000000000D+00  0.0000000000000D+00  0.0000000000000D+00
   360  3.5900000000000D+00  0.0000000000000D+00  0.0000000000000D+00
   361  3.6000000000000D+00  0.0000000000000D+00  0.0000000000000D+00
   362  3.6100000000000D+00  0.0000000000000D+00  0.0000000000000D+00
   363  3.6200000000000D+00  0.0000000000000D+00  0.0000000000000D+00
   364  3.6300000000000D+00  0.0000000000000D+00  0.0000000000000D+00
   365  3.6400000000000D+00  0.0000000000000D+00  0.0000000000000D+00
   366  3.6500000000000D+00  0.0000000000000D+00  0.0000000000000D+00
   367  3.6600000000000D+00  0.0000000000000D+00  0.0000000000000D+00
   368  3.6700000000000D+00  0.0000000000000D+00  0.0000000000000D+00
   369  3.6800000000000D+00  0.0000000000000D+00  0.0000000000000D+00
   370  3.6900000000000D+00  0.0000000000000D+00  0.0000000000000D+00
   371  3.7000000000000D+00  0.0000000000000D+00  0.0000000000000D+00
   372  3.7100000000000D+00  0.0000000000000D+00  0.0000000000000D+00
   373  3.7200000000000D+00  0.0000000000000D+00  0.0000000000000D+00
   374  3.7300000000000D+00  0.0000000000000D+00  0.0000000000000D+00
   375  3.7400000000000D+00  0.0000000000000D+00  0.0000000000000D+00
   376  3.7500000000000D+00  0.0000000000000D+00  0.0000000000000D+00
   377  3.7600000000000D+00  0.0000000000000D+00  0.0000000000000D+00
   378  3.7700000000000D+00  0.0000000000000D+00  0.0000000000000D+00
   379  3.7800000000000D+00  0.0000000000000D+00  0.0000000000000D+00
   380  3.7900000000000D+00  0.0000000000000D+00  0.0000000000000D+00
   381  3.8000000000000D+00  0.0000000000000D+00  0.0000000000000D+00
   382  3.8100000000000D+00  0.0000000000000D+00  0.0000000000000D+00
   383  3.8200000000000D+00  0.0000000000000D+00  0.0000000000000D+00
   384  3.8300000000000D+00  0.0000000000000D+00  0.0000000000000D+00
   385  3.8400000000000D+00  0.0000000000000D+00  0.0000000000000D+00
   386  3.8500000000000D+00  0.0000000000000D+00  0.0000000000000D+00
   387  3.8600000000000D+00  0.0000000000000D+00  0.0000000000000D+00
   388  3.8700000000000D+00  0.0000000000000D+00  0.0000000000000D+00
   389  3.8800000000000D+00  0.0000000000000D+00  0.0000000000000D+00
   390  3.8900000000000D+00  0.0000000000000D+00  0.0000000000000D+00
   391  3.9000000000000D+00  0.0000000000000D+00  0.0000000000000D+00
   392  3.9100000000000D+00  0.0000000000000D+00  0.0000000000000D+00
   393  3.9200000000000D+00  0.0000000000000D+00  0.0000000000000D+00
   394  3.9300000000000D+00  0.0000000000000D+00  0.0000000000000D+00
   395  3.9400000000000D+00  0.0000000000000D+00  0.0000000000000D+00
   396  3.9500000000000D+00  0.0000000000000D+00  0.0000000000000D+00
   397  3.9600000000000D+00  0.0000000000000D+00  0.0000000000000D+00
   398  3.9700000000000D+00  0.0000000000000D+00  0.0000000000000D+00
   399  3.9800000000000D+00  0.0000000000000D+00  0.0000000000000D+00
   400  3.9900000000000D+00  0.0000000000000D+00  0.0000000000000D+00
   401  4.0000000000000D+00  0.0000000000000D+00  0.0000000000000D+00
   402  4.0100000000000D+00  0.0000000000000D+00  0.0000000000000D+00
   403  4.0200000000000D+00  0.0000000000000D+00  0.0000000000000D+00
   404  4.0300000000000D+00  0.0000000000000D+00  0.0000000000000D+00
   405  4.0400000000000D+00  0.0000000000000D+00  0.0000000000000D+00
   406  4.0500000000000D+00  0.0000000000000D+00  0.0000000000000D+00
   407  4.0600000000000D+00  0.0000000000000D+00  0.0000000000000D+00
   408  4.0700000000000D+00  0.0000000000000D+00  0.0000000000000D+00
   409  4.0800000000000D+00  0.0000000000000D+00  0.0000000000000D+00
   410  4.0900000000000D+00  0.0000000000000D+00  0.0000000000000D+00
   411  4.1000000000000D+00  0.0000000000000D+00  0.0000000000000D+00
   412  4.1100000000000D+00  0.0000000000000D+00  0.0000000000000D+00
   413  4.1200000000000D+00  0.0000000000000D+00  0.0000000000000D+00
   414  4.1300000000000D+00  0.0000000000000D+00  0.0000000000000D+00
   415  4.1400000000000D+00  0.0000000000000D+00  0.0000000000000D+00
   416  4.1500000000000D+00  0.0000000000000D+00  0.0000000000000D+00
   417  4.1600000000000D+00  0.0000000000000D+00  0.0000000000000D+00
   418  4.1700000000000D+00  0.0000000000000D+00  0.0000000000000D+00
   419  4.1800000000000D+00  0.0000000000000D+00  0.0000000000000D+00
   420  4.1900000000000D+00  0.0000000000000D+00  0.0000000000000D+00
   421  4.2000000000000D+00  0.0000000000000D+00  0.0000000000000D+00
   422  4.2100000000000D+00  0.0000000000000D+00  0.0000000000000D+00