Cd    ONCVPSP-3.3.0  r_core=   1.91042   2.10171   1.71595
     48.0000     12.0000      220117    zatom,zion,pspd
     8      11   2     4   600     0    pspcod,pspxc,lmax,lloc,mmax,r2well
  5.99000000  0.00000000  0.00000000    rchrg fchrg qchrg
     2     2     2     0     0    nproj
     1     1           extension_switch
   0                         1.0670315784117D+01  1.8376395673256D+00
     1  0.0000000000000D+00 -5.9572402566488D-11  7.0573324961742D-11
     2  1.0000000000000D-02  4.4955846544312D-02 -3.0641565307736D-02
     3  2.0000000000000D-02  8.9765969694823D-02 -6.1119607628155D-02
     4  3.0000000000000D-02  1.3428536826314D-01 -9.1271430625018D-02
     5  4.0000000000000D-02  1.7837048197477D-01 -1.2093598721322D-01
     6  5.0000000000000D-02  2.2187990319865D-01 -1.4995469407454D-01
     7  6.0000000000000D-02  2.6467507824585D-01 -1.7817223409134D-01
     8  7.0000000000000D-02  3.0662099483030D-01 -2.0543734275369D-01
     9  8.0000000000000D-02  3.4758685234389D-01 -2.3160357466560D-01
    10  9.0000000000000D-02  3.8744671167256D-01 -2.5653004636431D-01
    11  1.0000000000000D-01  4.2608012136849D-01 -2.8008215177080D-01
    12  1.1000000000000D-01  4.6337271709538D-01 -3.0213224671099D-01
    13  1.2000000000000D-01  4.9921679138085D-01 -3.2256029908465D-01
    14  1.3000000000000D-01  5.3351183083853D-01 -3.4125450141176D-01
    15  1.4000000000000D-01  5.6616501816526D-01 -3.5811184265445D-01
    16  1.5000000000000D-01  5.9709169637354D-01 -3.7303863639523D-01
    17  1.6000000000000D-01  6.2621579288569D-01 -3.8595100264893D-01
    18  1.7000000000000D-01  6.5347020129444D-01 -3.9677530079567D-01
    19  1.8000000000000D-01  6.7879711878329D-01 -4.0544851134432D-01
    20  1.9000000000000D-01  7.0214833739848D-01 -4.1191856447011D-01
    21  2.0000000000000D-01  7.2348548757276D-01 -4.1614461351472D-01
    22  2.1000000000000D-01  7.4278023251769D-01 -4.1809725189162D-01
    23  2.2000000000000D-01  7.6001441232531D-01 -4.1775867210322D-01
    24  2.3000000000000D-01  7.7518013685215D-01 -4.1512276584768D-01
    25  2.4000000000000D-01  7.8827982669485D-01 -4.1019516447109D-01
    26  2.5000000000000D-01  7.9932620181068D-01 -4.0299321930523D-01
    27  2.6000000000000D-01  8.0834221758138D-01 -3.9354592171874D-01
    28  2.7000000000000D-01  8.1536094837014D-01 -3.8189376300189D-01
    29  2.8000000000000D-01  8.2042541887247D-01 -3.6808853449843D-01
    30  2.9000000000000D-01  8.2358838381565D-01 -3.5219306869290D-01
    31  3.0000000000000D-01  8.2491205681403D-01 -3.3428092225579D-01
    32  3.1000000000000D-01  8.2446778943991D-01 -3.1443600234107D-01
    33  3.2000000000000D-01  8.2233570181901D-01 -2.9275213772023D-01
    34  3.3000000000000D-01  8.1860426630627D-01 -2.6933259662082D-01
    35  3.4000000000000D-01  8.1336984603942D-01 -2.4428955341720D-01
    36  3.5000000000000D-01  8.0673619040333D-01 -2.1774350659151D-01
    37  3.6000000000000D-01  7.9881388966812D-01 -1.8982265064703D-01
    38  3.7000000000000D-01  7.8971979128407D-01 -1.6066220490777D-01
    39  3.8000000000000D-01  7.7957638052870D-01 -1.3040370238033D-01
    40  3.9000000000000D-01  7.6851112840254D-01 -9.9194242082460D-02
    41  4.0000000000000D-01  7.5665580986014D-01 -6.7185708458113D-02
    42  4.1000000000000D-01  7.4414579564000D-01 -3.4533961697984D-02
    43  4.2000000000000D-01  7.3111932112027D-01 -1.3980029675605D-03
    44  4.3000000000000D-01  7.1771673577667D-01  3.2060881289151D-02
    45  4.4000000000000D-01  7.0407973695187D-01  6.5679991655590D-02
    46  4.5000000000000D-01  6.9035059176138D-01  9.9296100217169D-02
    47  4.6000000000000D-01  6.7667135106171D-01  1.3274634265553D-01
    48  4.7000000000000D-01  6.6318305948630D-01  1.6586911333003D-01
    49  4.8000000000000D-01  6.5002496561599D-01  1.9850495865203D-01
    50  4.9000000000000D-01  6.3733373639416D-01  2.3049746401720D-01
    51  5.0000000000000D-01  6.2524267991910D-01  2.6169412954580D-01
    52  5.1000000000000D-01  6.1388098074469D-01  2.9194722989120D-01
    53  5.2000000000000D-01  6.0337295180399D-01  3.2111465340827D-01
    54  5.3000000000000D-01  5.9383730702800D-01  3.4906071603190D-01
    55  5.4000000000000D-01  5.8538645866757D-01  3.7565694530094D-01
    56  5.5000000000000D-01  5.7812584324620D-01  4.0078283006742D-01
    57  5.6000000000000D-01  5.7215327996115D-01  4.2432653156811D-01
    58  5.7000000000000D-01  5.6755836522753D-01  4.4618555168927D-01
    59  5.8000000000000D-01  5.6442190690911D-01  4.6626735443995D-01
    60  5.9000000000000D-01  5.6281540161279D-01  4.8448993685264D-01
    61  6.0000000000000D-01  5.6280055823257D-01  5.0078234576078D-01
    62  6.1000000000000D-01  5.6442887072461D-01  5.1508513714967D-01
    63  6.2000000000000D-01  5.6774124286302D-01  5.2735077505304D-01
    64  6.3000000000000D-01  5.7276766748577D-01  5.3754396725573D-01
    65  6.4000000000000D-01  5.7952696247531D-01  5.4564193537627D-01
    66  6.5000000000000D-01  5.8802656544408D-01  5.5163461722857D-01
    67  6.6000000000000D-01  5.9826238880061D-01  5.5552479970875D-01
    68  6.7000000000000D-01  6.1021873657014D-01  5.5732818080863D-01
    69  6.8000000000000D-01  6.2386828402448D-01  5.5707335973133D-01
    70  6.9000000000000D-01  6.3917212085235D-01  5.5480175446286D-01
    71  7.0000000000000D-01  6.5607985826387D-01  5.5056744654759D-01
    72  7.1000000000000D-01  6.7452980008284D-01  5.4443695321036D-01
    73  7.2000000000000D-01  6.9444917753388D-01  5.3648892737112D-01
    74  7.3000000000000D-01  7.1575444707962D-01  5.2681378650398D-01
    75  7.4000000000000D-01  7.3835165031599D-01  5.1551327169405D-01
    76  7.5000000000000D-01  7.6213683457934D-01  5.0269993865294D-01
    77  7.6000000000000D-01  7.8699653257461D-01  4.8849658284887D-01
    78  7.7000000000000D-01  8.1280829898865D-01  4.7303560130234D-01
    79  7.8000000000000D-01  8.3944130171879D-01  4.5645829397933D-01
    80  7.9000000000000D-01  8.6675696501818D-01  4.3891410808717D-01
    81  8.0000000000000D-01  8.9460966154175D-01  4.2055982893735D-01
    82  8.1000000000000D-01  9.2284744997597D-01  4.0155872137986D-01
    83  8.2000000000000D-01  9.5131285464192D-01  3.8207962614107D-01
    84  8.3000000000000D-01  9.7984368319277D-01  3.6229601569879D-01
    85  8.4000000000000D-01  1.0082738782685D+00  3.4238501461244D-01
    86  8.5000000000000D-01  1.0364343987389D+00  3.2252638948321D-01
    87  8.6000000000000D-01  1.0641541259517D+00  3.0290151395017D-01
    88  8.7000000000000D-01  1.0912607902145D+00  2.8369231433391D-01
    89  8.8000000000000D-01  1.1175819125737D+00  2.6508020171181D-01
    90  8.9000000000000D-01  1.1429457568141D+00  2.4724499635474D-01
    91  9.0000000000000D-01  1.1671822864931D+00  2.3036385056457D-01
    92  9.1000000000000D-01  1.1901241217403D+00  2.1461017603075D-01
    93  9.2000000000000D-01  1.2116074904961D+00  2.0015258186854D-01
    94  9.3000000000000D-01  1.2314731688425D+00  1.8715382950931D-01
    95  9.4000000000000D-01  1.2495674050821D+00  1.7576981058771D-01
    96  9.5000000000000D-01  1.2657428222611D+00  1.6614855390696D-01
    97  9.6000000000000D-01  1.2798592938971D+00  1.5842926746531D-01
    98  9.7000000000000D-01  1.2917847877732D+00  1.5274142139263D-01
    99  9.8000000000000D-01  1.3013961727877D+00  1.4920387747537D-01
   100  9.9000000000000D-01  1.3085799840101D+00  1.4792407074345D-01
   101  1.0000000000000D+00  1.3132331412861D+00  1.4899724834842D-01
   102  1.0100000000000D+00  1.3152636169448D+00  1.5250577070035D-01
   103  1.0200000000000D+00  1.3145910484184D+00  1.5851847951363D-01
   104  1.0300000000000D+00  1.3111472918534D+00  1.6709013708117D-01
   105  1.0400000000000D+00  1.3048769130928D+00  1.7826094073157D-01
   106  1.0500000000000D+00  1.2957376127318D+00  1.9205611603328D-01
   107  1.0600000000000D+00  1.2837005823101D+00  2.0848559187113D-01
   108  1.0700000000000D+00  1.2687507890369D+00  2.2754376012838D-01
   109  1.0800000000000D+00  1.2508871868703D+00  2.4920932218753D-01
   110  1.0900000000000D+00  1.2301228521558D+00  2.7344522401920D-01
   111  1.1000000000000D+00  1.2064850424477D+00  3.0019868112015D-01
   112  1.1100000000000D+00  1.1800151775864D+00  3.2940129403509D-01
   113  1.1200000000000D+00  1.1507687424849D+00  3.6096925474817D-01
   114  1.1300000000000D+00  1.1188151116103D+00  3.9480364359926D-01
   115  1.1400000000000D+00  1.0842372955304D+00  4.3079081593408D-01
   116  1.1500000000000D+00  1.0471316104128D+00  4.6880287708747D-01
   117  1.1600000000000D+00  1.0076072716921D+00  5.0869824391950D-01
   118  1.1700000000000D+00  9.6578591373445D-01  5.5032229040725D-01
   119  1.1800000000000D+00  9.2180103766935D-01  5.9350807440112D-01
   120  1.1900000000000D+00  8.7579739001269D-01  6.3807714213090D-01
   121  1.2000000000000D+00  8.2793027508752D-01  6.8384040660250D-01
   122  1.2100000000000D+00  7.7836480475196D-01  7.3059909545091D-01
   123  1.2200000000000D+00  7.2727508930801D-01  7.7814576339953D-01
   124  1.2300000000000D+00  6.7484337367597D-01  8.2626536423339D-01
   125  1.2400000000000D+00  6.2125912352346D-01  8.7473637650868D-01
   126  1.2500000000000D+00  5.6671806623203D-01  9.2333197700709D-01
   127  1.2600000000000D+00  5.1142119179717D-01  9.7182125570222D-01
   128  1.2700000000000D+00  4.5557371919190D-01  1.0199704655216D+00
   129  1.2800000000000D+00  3.9938403391378D-01  1.0675442999876D+00
   130  1.2900000000000D+00  3.4306260252802D-01  1.1143071917163D+00
   131  1.3000000000000D+00  2.8682087035455D-01  1.1600246243927D+00
   132  1.3100000000000D+00  2.3087014851535D-01  1.2044644507890D+00
   133  1.3200000000000D+00  1.7542049659822D-01  1.2473982093410D+00
   134  1.3300000000000D+00  1.2067960740302D-01  1.2886024315996D+00
   135  1.3400000000000D+00  6.6851700096482D-02  1.3278599330664D+00
   136  1.3500000000000D+00  1.4136428252932D-02  1.3649610797246D+00
   137  1.3600000000000D+00 -3.7272190899289D-02  1.3997050228454D+00
   138  1.3700000000000D+00 -8.7186819832598D-02  1.4319008947860D+00
   139  1.3800000000000D+00 -1.3542781032739D-01  1.4613689583256D+00
   140  1.3900000000000D+00 -1.8182417365175D-01  1.4879417029494D+00
   141  1.4000000000000D+00 -2.2621450527117D-01  1.5114648810199D+00
   142  1.4100000000000D+00 -2.6844785858680D-01  1.5317984774827D+00
   143  1.4200000000000D+00 -3.0838456275240D-01  1.5488176074247D+00
   144  1.4300000000000D+00 -3.4589697889156D-01  1.5624133349140D+00
   145  1.4400000000000D+00 -3.8087019095956D-01  1.5724934089276D+00
   146  1.4500000000000D+00 -4.1320262619986D-01  1.5789829105725D+00
   147  1.4600000000000D+00 -4.4280660165841D-01  1.5818248076773D+00
   148  1.4700000000000D+00 -4.6960879356301D-01  1.5809804132359D+00
   149  1.4800000000000D+00 -4.9355062551519D-01  1.5764297431541D+00
   150  1.4900000000000D+00 -5.1458857458600D-01  1.5681717725546D+00
   151  1.5000000000000D+00 -5.3269439114795D-01  1.5562245859579D+00
   152  1.5100000000000D+00 -5.4785523282008D-01  1.5406254221458D+00
   153  1.5200000000000D+00 -5.6007370992038D-01  1.5214306109129D+00
   154  1.5300000000000D+00 -5.6936784253199D-01  1.4987154021841D+00
   155  1.5400000000000D+00 -5.7577092924581D-01  1.4725736879085D+00
   156  1.5500000000000D+00 -5.7933132692924D-01  1.4431176163053D+00
   157  1.5600000000000D+00 -5.8011214443348D-01  1.4104771022709D+00
   158  1.5700000000000D+00 -5.7819084885907D-01  1.3747992326621D+00
   159  1.5800000000000D+00 -5.7365878985804D-01  1.3362475733071D+00
   160  1.5900000000000D+00 -5.6662064045782D-01  1.2950013763123D+00
   161  1.6000000000000D+00 -5.5719376131407D-01  1.2512546961961D+00
   162  1.6100000000000D+00 -5.4550748810817D-01  1.2052154148867D+00
   163  1.6200000000000D+00 -5.3170234909904D-01  1.1571041842191D+00
   164  1.6300000000000D+00 -5.1592921438690D-01  1.1071532881509D+00
   165  1.6400000000000D+00 -4.9834838375972D-01  1.0556054331537D+00
   166  1.6500000000000D+00 -4.7912861631153D-01  1.0027124709173D+00
   167  1.6600000000000D+00 -4.5844610844974D-01  9.4873406066138D-01
   168  1.6700000000000D+00 -4.3648342589954D-01  8.9393628280278D-01
   169  1.6800000000000D+00 -4.1342839264181D-01  8.3859019243931D-01
   170  1.6900000000000D+00 -3.8947295286914D-01  7.8297036986366D-01
   171  1.7000000000000D+00 -3.6481200140179D-01  7.2735342911601D-01
   172  1.7100000000000D+00 -3.3964216495388D-01  6.7201635377425D-01
   173  1.7200000000000D+00 -3.1416061775806D-01  6.1723507035474D-01
   174  1.7300000000000D+00 -2.8856393704200D-01  5.6328330506341D-01
   175  1.7400000000000D+00 -2.6304695439754D-01  5.1043134805289D-01
   176  1.7500000000000D+00 -2.3780165418886D-01  4.5894493997151D-01
   177  1.7600000000000D+00 -2.1301606547223D-01  4.0908408364292D-01
   178  1.7700000000000D+00 -1.8887310911530D-01  3.6110149593584D-01
   179  1.7800000000000D+00 -1.6554949179080D-01  3.1524119817269D-01
   180  1.7900000000000D+00 -1.4321464368645D-01  2.7173724455868D-01
   181  1.8000000000000D+00 -1.2202967978650D-01  2.3081240839503D-01
   182  1.8100000000000D+00 -1.0214641196436D-01  1.9267696136744D-01
   183  1.8200000000000D+00 -8.3706404266285D-02  1.5752749796027D-01
   184  1.8300000000000D+00 -6.6840085978828D-02  1.2554583336997D-01
   185  1.8400000000000D+00 -5.1665918602733D-02  9.6897968573383D-02
   186  1.8500000000000D+00 -3.8298646415560D-02  7.1750189941766D-02
   187  1.8600000000000D+00 -2.6812388470647D-02  5.0199726254587D-02
   188  1.8700000000000D+00 -1.7247287336002D-02  3.2287872512477D-02
   189  1.8800000000000D+00 -9.7306923286706D-03  1.8229047049034D-02
   190  1.8900000000000D+00 -4.4479878528565D-03  8.3560825201928D-03
   191  1.9000000000000D+00 -1.3570040472931D-03  2.5813504550999D-03
   192  1.9100000000000D+00  3.0218589503373D-05 -1.6153373342482D-05
   193  1.9200000000000D+00  3.1031147030742D-04 -5.5638096032779D-04
   194  1.9300000000000D+00  9.3219903664825D-05 -1.6926765271957D-04
   195  1.9400000000000D+00 -8.0115377068555D-05  1.4587831503418D-04
   196  1.9500000000000D+00 -6.4686049361905D-05  1.1807245059494D-04
   197  1.9600000000000D+00  8.5849466876250D-06 -1.5544029111536D-05
   198  1.9700000000000D+00  1.6149777173027D-05 -2.9291988265765D-05
   199  1.9800000000000D+00  5.6415396887714D-08 -1.0245257586750D-07
   200  1.9900000000000D+00 -1.6765103640737D-07  2.0176287791523D-07
   201  2.0000000000000D+00 -7.6978394321493D-08  9.2641135470577D-08
   202  2.0100000000000D+00  0.0000000000000D+00  0.0000000000000D+00
   203  2.0200000000000D+00  0.0000000000000D+00  0.0000000000000D+00
   204  2.0300000000000D+00  0.0000000000000D+00  0.0000000000000D+00
   205  2.0400000000000D+00  0.0000000000000D+00  0.0000000000000D+00
   206  2.0500000000000D+00  0.0000000000000D+00  0.0000000000000D+00
   207  2.0600000000000D+00  0.0000000000000D+00  0.0000000000000D+00
   208  2.0700000000000D+00  0.0000000000000D+00  0.0000000000000D+00
   209  2.0800000000000D+00  0.0000000000000D+00  0.0000000000000D+00
   210  2.0900000000000D+00  0.0000000000000D+00  0.0000000000000D+00
   211  2.1000000000000D+00  0.0000000000000D+00  0.0000000000000D+00
   212  2.1100000000000D+00  0.0000000000000D+00  0.0000000000000D+00
   213  2.1200000000000D+00  0.0000000000000D+00  0.0000000000000D+00
   214  2.1300000000000D+00  0.0000000000000D+00  0.0000000000000D+00
   215  2.1400000000000D+00  0.0000000000000D+00  0.0000000000000D+00
   216  2.1500000000000D+00  0.0000000000000D+00  0.0000000000000D+00
   217  2.1600000000000D+00  0.0000000000000D+00  0.0000000000000D+00
   218  2.1700000000000D+00  0.0000000000000D+00  0.0000000000000D+00
   219  2.1800000000000D+00  0.0000000000000D+00  0.0000000000000D+00
   220  2.1900000000000D+00  0.0000000000000D+00  0.0000000000000D+00
   221  2.2000000000000D+00  0.0000000000000D+00  0.0000000000000D+00
   222  2.2100000000000D+00  0.0000000000000D+00  0.0000000000000D+00
   223  2.2200000000000D+00  0.0000000000000D+00  0.0000000000000D+00
   224  2.2300000000000D+00  0.0000000000000D+00  0.0000000000000D+00
   225  2.2400000000000D+00  0.0000000000000D+00  0.0000000000000D+00
   226  2.2500000000000D+00  0.0000000000000D+00  0.0000000000000D+00
   227  2.2600000000000D+00  0.0000000000000D+00  0.0000000000000D+00
   228  2.2700000000000D+00  0.0000000000000D+00  0.0000000000000D+00
   229  2.2800000000000D+00  0.0000000000000D+00  0.0000000000000D+00
   230  2.2900000000000D+00  0.0000000000000D+00  0.0000000000000D+00
   231  2.3000000000000D+00  0.0000000000000D+00  0.0000000000000D+00
   232  2.3100000000000D+00  0.0000000000000D+00  0.0000000000000D+00
   233  2.3200000000000D+00  0.0000000000000D+00  0.0000000000000D+00
   234  2.3300000000000D+00  0.0000000000000D+00  0.0000000000000D+00
   235  2.3400000000000D+00  0.0000000000000D+00  0.0000000000000D+00
   236  2.3500000000000D+00  0.0000000000000D+00  0.0000000000000D+00
   237  2.3600000000000D+00  0.0000000000000D+00  0.0000000000000D+00
   238  2.3700000000000D+00  0.0000000000000D+00  0.0000000000000D+00
   239  2.3800000000000D+00  0.0000000000000D+00  0.0000000000000D+00
   240  2.3900000000000D+00  0.0000000000000D+00  0.0000000000000D+00
   241  2.4000000000000D+00  0.0000000000000D+00  0.0000000000000D+00
   242  2.4100000000000D+00  0.0000000000000D+00  0.0000000000000D+00
   243  2.4200000000000D+00  0.0000000000000D+00  0.0000000000000D+00
   244  2.4300000000000D+00  0.0000000000000D+00  0.0000000000000D+00
   245  2.4400000000000D+00  0.0000000000000D+00  0.0000000000000D+00
   246  2.4500000000000D+00  0.0000000000000D+00  0.0000000000000D+00
   247  2.4600000000000D+00  0.0000000000000D+00  0.0000000000000D+00
   248  2.4700000000000D+00  0.0000000000000D+00  0.0000000000000D+00
   249  2.4800000000000D+00  0.0000000000000D+00  0.0000000000000D+00
   250  2.4900000000000D+00  0.0000000000000D+00  0.0000000000000D+00
   251  2.5000000000000D+00  0.0000000000000D+00  0.0000000000000D+00
   252  2.5100000000000D+00  0.0000000000000D+00  0.0000000000000D+00
   253  2.5200000000000D+00  0.0000000000000D+00  0.0000000000000D+00
   254  2.5300000000000D+00  0.0000000000000D+00  0.0000000000000D+00
   255  2.5400000000000D+00  0.0000000000000D+00  0.0000000000000D+00
   256  2.5500000000000D+00  0.0000000000000D+00  0.0000000000000D+00
   257  2.5600000000000D+00  0.0000000000000D+00  0.0000000000000D+00
   258  2.5700000000000D+00  0.0000000000000D+00  0.0000000000000D+00
   259  2.5800000000000D+00  0.0000000000000D+00  0.0000000000000D+00
   260  2.5900000000000D+00  0.0000000000000D+00  0.0000000000000D+00
   261  2.6000000000000D+00  0.0000000000000D+00  0.0000000000000D+00
   262  2.6100000000000D+00  0.0000000000000D+00  0.0000000000000D+00
   263  2.6200000000000D+00  0.0000000000000D+00  0.0000000000000D+00
   264  2.6300000000000D+00  0.0000000000000D+00  0.0000000000000D+00
   265  2.6400000000000D+00  0.0000000000000D+00  0.0000000000000D+00
   266  2.6500000000000D+00  0.0000000000000D+00  0.0000000000000D+00
   267  2.6600000000000D+00  0.0000000000000D+00  0.0000000000000D+00
   268  2.6700000000000D+00  0.0000000000000D+00  0.0000000000000D+00
   269  2.6800000000000D+00  0.0000000000000D+00  0.0000000000000D+00
   270  2.6900000000000D+00  0.0000000000000D+00  0.0000000000000D+00
   271  2.7000000000000D+00  0.0000000000000D+00  0.0000000000000D+00
   272  2.7100000000000D+00  0.0000000000000D+00  0.0000000000000D+00
   273  2.7200000000000D+00  0.0000000000000D+00  0.0000000000000D+00
   274  2.7300000000000D+00  0.0000000000000D+00  0.0000000000000D+00
   275  2.7400000000000D+00  0.0000000000000D+00  0.0000000000000D+00
   276  2.7500000000000D+00  0.0000000000000D+00  0.0000000000000D+00
   277  2.7600000000000D+00  0.0000000000000D+00  0.0000000000000D+00
   278  2.7700000000000D+00  0.0000000000000D+00  0.0000000000000D+00
   279  2.7800000000000D+00  0.0000000000000D+00  0.0000000000000D+00
   280  2.7900000000000D+00  0.0000000000000D+00  0.0000000000000D+00
   281  2.8000000000000D+00  0.0000000000000D+00  0.0000000000000D+00
   282  2.8100000000000D+00  0.0000000000000D+00  0.0000000000000D+00
   283  2.8200000000000D+00  0.0000000000000D+00  0.0000000000000D+00
   284  2.8300000000000D+00  0.0000000000000D+00  0.0000000000000D+00
   285  2.8400000000000D+00  0.0000000000000D+00  0.0000000000000D+00
   286  2.8500000000000D+00  0.0000000000000D+00  0.0000000000000D+00
   287  2.8600000000000D+00  0.0000000000000D+00  0.0000000000000D+00
   288  2.8700000000000D+00  0.0000000000000D+00  0.0000000000000D+00
   289  2.8800000000000D+00  0.0000000000000D+00  0.0000000000000D+00
   290  2.8900000000000D+00  0.0000000000000D+00  0.0000000000000D+00
   291  2.9000000000000D+00  0.0000000000000D+00  0.0000000000000D+00
   292  2.9100000000000D+00  0.0000000000000D+00  0.0000000000000D+00
   293  2.9200000000000D+00  0.0000000000000D+00  0.0000000000000D+00
   294  2.9300000000000D+00  0.0000000000000D+00  0.0000000000000D+00
   295  2.9400000000000D+00  0.0000000000000D+00  0.0000000000000D+00
   296  2.9500000000000D+00  0.0000000000000D+00  0.0000000000000D+00
   297  2.9600000000000D+00  0.0000000000000D+00  0.0000000000000D+00
   298  2.9700000000000D+00  0.0000000000000D+00  0.0000000000000D+00
   299  2.9800000000000D+00  0.0000000000000D+00  0.0000000000000D+00
   300  2.9900000000000D+00  0.0000000000000D+00  0.0000000000000D+00
   301  3.0000000000000D+00  0.0000000000000D+00  0.0000000000000D+00
   302  3.0100000000000D+00  0.0000000000000D+00  0.0000000000000D+00
   303  3.0200000000000D+00  0.0000000000000D+00  0.0000000000000D+00
   304  3.0300000000000D+00  0.0000000000000D+00  0.0000000000000D+00
   305  3.0400000000000D+00  0.0000000000000D+00  0.0000000000000D+00
   306  3.0500000000000D+00  0.0000000000000D+00  0.0000000000000D+00
   307  3.0600000000000D+00  0.0000000000000D+00  0.0000000000000D+00
   308  3.0700000000000D+00  0.0000000000000D+00  0.0000000000000D+00
   309  3.0800000000000D+00  0.0000000000000D+00  0.0000000000000D+00
   310  3.0900000000000D+00  0.0000000000000D+00  0.0000000000000D+00
   311  3.1000000000000D+00  0.0000000000000D+00  0.0000000000000D+00
   312  3.1100000000000D+00  0.0000000000000D+00  0.0000000000000D+00
   313  3.1200000000000D+00  0.0000000000000D+00  0.0000000000000D+00
   314  3.1300000000000D+00  0.0000000000000D+00  0.0000000000000D+00
   315  3.1400000000000D+00  0.0000000000000D+00  0.0000000000000D+00
   316  3.1500000000000D+00  0.0000000000000D+00  0.0000000000000D+00
   317  3.1600000000000D+00  0.0000000000000D+00  0.0000000000000D+00
   318  3.1700000000000D+00  0.0000000000000D+00  0.0000000000000D+00
   319  3.1800000000000D+00  0.0000000000000D+00  0.0000000000000D+00
   320  3.1900000000000D+00  0.0000000000000D+00  0.0000000000000D+00
   321  3.2000000000000D+00  0.0000000000000D+00  0.0000000000000D+00
   322  3.2100000000000D+00  0.0000000000000D+00  0.0000000000000D+00
   323  3.2200000000000D+00  0.0000000000000D+00  0.0000000000000D+00
   324  3.2300000000000D+00  0.0000000000000D+00  0.0000000000000D+00
   325  3.2400000000000D+00  0.0000000000000D+00  0.0000000000000D+00
   326  3.2500000000000D+00  0.0000000000000D+00  0.0000000000000D+00
   327  3.2600000000000D+00  0.0000000000000D+00  0.0000000000000D+00
   328  3.2700000000000D+00  0.0000000000000D+00  0.0000000000000D+00
   329  3.2800000000000D+00  0.0000000000000D+00  0.0000000000000D+00
   330  3.2900000000000D+00  0.0000000000000D+00  0.0000000000000D+00
   331  3.3000000000000D+00  0.0000000000000D+00  0.0000000000000D+00
   332  3.3100000000000D+00  0.0000000000000D+00  0.0000000000000D+00
   333  3.3200000000000D+00  0.0000000000000D+00  0.0000000000000D+00
   334  3.3300000000000D+00  0.0000000000000D+00  0.0000000000000D+00
   335  3.3400000000000D+00  0.0000000000000D+00  0.0000000000000D+00
   336  3.3500000000000D+00  0.0000000000000D+00  0.0000000000000D+00
   337  3.3600000000000D+00  0.0000000000000D+00  0.0000000000000D+00
   338  3.3700000000000D+00  0.0000000000000D+00  0.0000000000000D+00
   339  3.3800000000000D+00  0.0000000000000D+00  0.0000000000000D+00
   340  3.3900000000000D+00  0.0000000000000D+00  0.0000000000000D+00
   341  3.4000000000000D+00  0.0000000000000D+00  0.0000000000000D+00
   342  3.4100000000000D+00  0.0000000000000D+00  0.0000000000000D+00
   343  3.4200000000000D+00  0.0000000000000D+00  0.0000000000000D+00
   344  3.4300000000000D+00  0.0000000000000D+00  0.0000000000000D+00
   345  3.4400000000000D+00  0.0000000000000D+00  0.0000000000000D+00
   346  3.4500000000000D+00  0.0000000000000D+00  0.0000000000000D+00
   347  3.4600000000000D+00  0.0000000000000D+00  0.0000000000000D+00
   348  3.4700000000000D+00  0.0000000000000D+00  0.0000000000000D+00
   349  3.4800000000000D+00  0.0000000000000D+00  0.0000000000000D+00
   350  3.4900000000000D+00  0.0000000000000D+00  0.0000000000000D+00
   351  3.5000000000000D+00  0.0000000000000D+00  0.0000000000000D+00
   352  3.5100000000000D+00  0.0000000000000D+00  0.0000000000000D+00
   353  3.5200000000000D+00  0.0000000000000D+00  0.0000000000000D+00
   354  3.5300000000000D+00  0.0000000000000D+00  0.0000000000000D+00
   355  3.5400000000000D+00  0.0000000000000D+00  0.0000000000000D+00
   356  3.5500000000000D+00  0.0000000000000D+00  0.0000000000000D+00
   357  3.5600000000000D+00  0.0000000000000D+00  0.0000000000000D+00
   358  3.5700000000000D+00  0.0000000000000D+00  0.0000000000000D+00
   359  3.5800000000000D+00  0.0000000000000D+00  0.0000000000000D+00
   360  3.5900000000000D+00  0.0000000000000D+00  0.0000000000000D+00
   361  3.6000000000000D+00  0.0000000000000D+00  0.0000000000000D+00
   362  3.6100000000000D+00  0.0000000000000D+00  0.0000000000000D+00
   363  3.6200000000000D+00  0.0000000000000D+00  0.0000000000000D+00
   364  3.6300000000000D+00  0.0000000000000D+00  0.0000000000000D+00
   365  3.6400000000000D+00  0.0000000000000D+00  0.0000000000000D+00
   366  3.6500000000000D+00  0.0000000000000D+00  0.0000000000000D+00
   367  3.6600000000000D+00  0.0000000000000D+00  0.0000000000000D+00
   368  3.6700000000000D+00  0.0000000000000D+00  0.0000000000000D+00
   369  3.6800000000000D+00  0.0000000000000D+00  0.0000000000000D+00
   370  3.6900000000000D+00  0.0000000000000D+00  0.0000000000000D+00
   371  3.7000000000000D+00  0.0000000000000D+00  0.0000000000000D+00
   372  3.7100000000000D+00  0.0000000000000D+00  0.0000000000000D+00
   373  3.7200000000000D+00  0.0000000000000D+00  0.0000000000000D+00
   374  3.7300000000000D+00  0.0000000000000D+00  0.0000000000000D+00
   375  3.7400000000000D+00  0.0000000000000D+00  0.0000000000000D+00
   376  3.7500000000000D+00  0.0000000000000D+00  0.0000000000000D+00
   377  3.7600000000000D+00  0.0000000000000D+00  0.0000000000000D+00
   378  3.7700000000000D+00  0.0000000000000D+00  0.0000000000000D+00
   379  3.7800000000000D+00  0.0000000000000D+00  0.0000000000000D+00
   380  3.7900000000000D+00  0.0000000000000D+00  0.0000000000000D+00
   381  3.8000000000000D+00  0.0000000000000D+00  0.0000000000000D+00
   382  3.8100000000000D+00  0.0000000000000D+00  0.0000000000000D+00
   383  3.8200000000000D+00  0.0000000000000D+00  0.0000000000000D+00
   384  3.8300000000000D+00  0.0000000000000D+00  0.0000000000000D+00
   385  3.8400000000000D+00  0.0000000000000D+00  0.0000000000000D+00
   386  3.8500000000000D+00  0.0000000000000D+00  0.0000000000000D+00
   387  3.8600000000000D+00  0.0000000000000D+00  0.0000000000000D+00
   388  3.8700000000000D+00  0.0000000000000D+00  0.0000000000000D+00
   389  3.8800000000000D+00  0.0000000000000D+00  0.0000000000000D+00
   390  3.8900000000000D+00  0.0000000000000D+00  0.0000000000000D+00
   391  3.9000000000000D+00  0.0000000000000D+00  0.0000000000000D+00
   392  3.9100000000000D+00  0.0000000000000D+00  0.0000000000000D+00
   393  3.9200000000000D+00  0.0000000000000D+00  0.0000000000000D+00
   394  3.9300000000000D+00  0.0000000000000D+00  0.0000000000000D+00
   395  3.9400000000000D+00  0.0000000000000D+00  0.0000000000000D+00
   396  3.9500000000000D+00  0.0000000000000D+00  0.0000000000000D+00
   397  3.9600000000000D+00  0.0000000000000D+00  0.0000000000000D+00
   398  3.9700000000000D+00  0.0000000000000D+00  0.0000000000000D+00
   399  3.9800000000000D+00  0.0000000000000D+00  0.0000000000000D+00
   400  3.9900000000000D+00  0.0000000000000D+00  0.0000000000000D+00
   401  4.0000000000000D+00  0.0000000000000D+00  0.0000000000000D+00
   402  4.0100000000000D+00  0.0000000000000D+00  0.0000000000000D+00
   403  4.0200000000000D+00  0.0000000000000D+00  0.0000000000000D+00
   404  4.0300000000000D+00  0.0000000000000D+00  0.0000000000000D+00
   405  4.0400000000000D+00  0.0000000000000D+00  0.0000000000000D+00
   406  4.0500000000000D+00  0.0000000000000D+00  0.0000000000000D+00
   407  4.0600000000000D+00  0.0000000000000D+00  0.0000000000000D+00
   408  4.0700000000000D+00  0.0000000000000D+00  0.0000000000000D+00
   409  4.0800000000000D+00  0.0000000000000D+00  0.0000000000000D+00
   410  4.0900000000000D+00  0.0000000000000D+00  0.0000000000000D+00
   411  4.1000000000000D+00  0.0000000000000D+00  0.0000000000000D+00
   412  4.1100000000000D+00  0.0000000000000D+00  0.0000000000000D+00
   413  4.1200000000000D+00  0.0000000000000D+00  0.0000000000000D+00
   414  4.1300000000000D+00  0.0000000000000D+00  0.0000000000000D+00
   415  4.1400000000000D+00  0.0000000000000D+00  0.0000000000000D+00
   416  4.1500000000000D+00  0.0000000000000D+00  0.0000000000000D+00
   417  4.1600000000000D+00  0.0000000000000D+00  0.0000000000000D+00
   418  4.1700000000000D+00  0.0000000000000D+00  0.0000000000000D+00
   419  4.1800000000000D+00  0.0000000000000D+00  0.0000000000000D+00
   420  4.1900000000000D+00  0.0000000000000D+00  0.0000000000000D+00
   421  4.2000000000000D+00  0.0000000000000D+00  0.0000000000000D+00
   422  4.2100000000000D+00  0.0000000000000D+00  0.0000000000000D+00