H     ONCVPSP-3.3.0  r_core=   1.00957   0.70586
      1.0000      1.0000      220117    zatom,zion,pspd
     8      11   1     4   300     0    pspcod,pspxc,lmax,lloc,mmax,r2well
  2.99000000  0.00000000  0.00000000    rchrg fchrg qchrg
     2     1     0     0     0    nproj
     1     1           extension_switch
   0                        -1.7011234982418D+00 -5.3448392396079D-01
     1  0.0000000000000D+00  3.3081716754868D-08 -5.2646353831953D-08
     2  1.0000000000000D-02  3.8801089641124D-02  1.0206983186709D-01
     3  2.0000000000000D-02  7.8462206138703D-02  2.0241542875587D-01
     4  3.0000000000000D-02  1.1982095449851D-01  2.9934822082862D-01
     5  4.0000000000000D-02  1.6367054783901D-01  3.9125025853104D-01
     6  5.0000000000000D-02  2.1073873230701D-01  4.7660776155589D-01
     7  6.0000000000000D-02  2.6166803289559D-01  5.5404259281302D-01
     8  7.0000000000000D-02  3.1699772073971D-01  6.2234102898591D-01
     9  8.0000000000000D-02  3.7714786938284D-01  6.8047925190083D-01
    10  9.0000000000000D-02  4.4240582734520D-01  7.2764504882445D-01
    11  1.0000000000000D-01  5.1291538784036D-01  7.6325528371052D-01
    12  1.1000000000000D-01  5.8866888456336D-01  7.8696878391916D-01
    13  1.2000000000000D-01  6.6950238609253D-01  7.9869437644650D-01
    14  1.3000000000000D-01  7.5509410168098D-01  7.9859390250520D-01
    15  1.4000000000000D-01  8.4496604919385D-01  7.8708013756266D-01
    16  1.5000000000000D-01  9.3848897285502D-01  7.6480964377820D-01
    17  1.6000000000000D-01  1.0348904355016D+00  7.3267068125260D-01
    18  1.7000000000000D-01  1.1332659484059D+00  6.9176640169152D-01
    19  1.8000000000000D-01  1.2325929425893D+00  6.4339364109895D-01
    20  1.9000000000000D-01  1.3317473300526D+00  5.8901771515492D-01
    21  2.0000000000000D-01  1.4295223525440D+00  5.3024370028898D-01
    22  2.1000000000000D-01  1.5246493703579D+00  4.6878475359204D-01
    23  2.2000000000000D-01  1.6158202050759D+00  4.0642808422499D-01
    24  2.3000000000000D-01  1.7017106188677D+00  3.4499923671543D-01
    25  2.4000000000000D-01  1.7810044895851D+00  2.8632538151878D-01
    26  2.5000000000000D-01  1.8524182258563D+00  2.3219832975563D-01
    27  2.6000000000000D-01  1.9147249600275D+00  1.8433799666496D-01
    28  2.7000000000000D-01  1.9667780592504D+00  1.4435703184977D-01
    29  2.8000000000000D-01  2.0075335062280D+00  1.1372731392579D-01
    30  2.9000000000000D-01  2.0360707209341D+00  9.3748973070822D-02
    31  3.0000000000000D-01  2.0516114226270D+00  8.5522557842913D-02
    32  3.1000000000000D-01  2.0535361671911D+00  8.9924903359951D-02
    33  3.2000000000000D-01  2.0413982375608D+00  1.0758918764158D-01
    34  3.3000000000000D-01  2.0149346139396D+00  1.3888958293317D-01
    35  3.4000000000000D-01  1.9740738047628D+00  1.8393082069889D-01
    36  3.5000000000000D-01  1.9189403778579D+00  2.4254289437818D-01
    37  3.6000000000000D-01  1.8498560929030D+00  3.1428102477675D-01
    38  3.7000000000000D-01  1.7673375998982D+00  3.9843091103536D-01
    39  3.8000000000000D-01  1.6720907327200D+00  4.9401918747358D-01
    40  3.9000000000000D-01  1.5650014906965D+00  5.9982890524813D-01
    41  4.0000000000000D-01  1.4471238632768D+00  7.1441975969320D-01
    42  4.1000000000000D-01  1.3196647120796D+00  8.3615269135644D-01
    43  4.2000000000000D-01  1.1839659797386D+00  9.6321840294877D-01
    44  4.3000000000000D-01  1.0414845449477D+00  1.0936692574093D+00
    45  4.4000000000000D-01  8.9377008696292D-01  1.2254539555888D+00
    46  4.5000000000000D-01  7.4244135969163D-01  1.3564543370288D+00
    47  4.6000000000000D-01  5.8916130465576D-01  1.4845236050929D+00
    48  4.7000000000000D-01  4.3561145298430D-01  1.6075252491645D+00
    49  4.8000000000000D-01  2.8346607874534D-01  1.7233719223873D+00
    50  4.9000000000000D-01  1.3436656912551D-01  1.8300635338199D+00
    51  5.0000000000000D-01 -1.0103528874654D-02  1.9257238289619D+00
    52  5.1000000000000D-01 -1.4844234033512D-01  2.0086347621349D+00
    53  5.2000000000000D-01 -2.7925195145331D-01  2.0772680076806D+00
    54  5.3000000000000D-01 -4.0125876591474D-01  2.1303130134833D+00
    55  5.4000000000000D-01 -5.1333157805926D-01  2.1667010689735D+00
    56  5.5000000000000D-01 -6.1449705845986D-01  2.1856249392094D+00
    57  5.6000000000000D-01 -7.0395239951888D-01  2.1865537050842D+00
    58  5.7000000000000D-01 -7.8107492587327D-01  2.1692425460781D+00
    59  5.8000000000000D-01 -8.4542853508785D-01  2.1337373034142D+00
    60  5.9000000000000D-01 -8.9676689787213D-01  2.0803737672526D+00
    61  6.0000000000000D-01 -9.3503341175255D-01  2.0097717381277D+00
    62  6.1000000000000D-01 -9.6035796753947D-01  1.9228240197994D+00
    63  6.2000000000000D-01 -9.7305065156617D-01  1.8206806039800D+00
    64  6.3000000000000D-01 -9.7359256859873D-01  1.7047284070641D+00
    65  6.4000000000000D-01 -9.6262402814359D-01  1.5765670111681D+00
    66  6.5000000000000D-01 -9.4093039021478D-01  1.4379809458230D+00
    67  6.6000000000000D-01 -9.0942591429563D-01  1.2909091206494D+00
    68  6.7000000000000D-01 -8.6913599599019D-01  1.1374120812965D+00
    69  6.8000000000000D-01 -8.2117820930005D-01  9.7963781021485D-01
    70  6.9000000000000D-01 -7.6674259958731D-01  8.1978683344856D-01
    71  7.0000000000000D-01 -7.0707165489976D-01  6.6007733093505D-01
    72  7.1000000000000D-01 -6.4344060212725D-01  5.0271148345422D-01
    73  7.2000000000000D-01 -5.7713458900786D-01  3.4983409910171D-01
    74  7.3000000000000D-01 -5.0941742282580D-01  2.0347177689309D-01
    75  7.4000000000000D-01 -4.4150498160594D-01  6.5486661327721D-02
    76  7.5000000000000D-01 -3.7454481153510D-01 -6.2454002626147D-02
    77  7.6000000000000D-01 -3.0959747340968D-01 -1.7890485477534D-01
    78  7.7000000000000D-01 -2.4762015860295D-01 -2.8266490815307D-01
    79  7.8000000000000D-01 -1.8945279929884D-01 -3.7279526258477D-01
    80  7.9000000000000D-01 -1.3580689638200D-01 -4.4863171752536D-01
    81  8.0000000000000D-01 -8.7257230861047D-02 -5.0979206111121D-01
    82  8.1000000000000D-01 -4.4236564749705D-02 -5.5617791756907D-01
    83  8.2000000000000D-01 -7.0333760295893D-03 -5.8797114165647D-01
    84  8.3000000000000D-01  2.4207389107934D-02 -6.0562485481831D-01
    85  8.4000000000000D-01  4.9480624486898D-02 -6.0984932247905D-01
    86  8.5000000000000D-01  6.8914569055723D-02 -6.0159297208299D-01
    87  8.6000000000000D-01  8.2761700910498D-02 -5.8201894597429D-01
    88  8.7000000000000D-01  9.1387263702100D-02 -5.5247767008041D-01
    89  8.8000000000000D-01  9.5255714748049D-02 -5.1447599613668D-01
    90  8.9000000000000D-01  9.4915424250988D-02 -4.6964354177451D-01
    91  9.0000000000000D-01  9.0981987787123D-02 -4.1969690639814D-01
    92  9.1000000000000D-01  8.4120539584311D-02 -3.6640248139851D-01
    93  9.2000000000000D-01  7.5027471386445D-02 -3.1153859975978D-01
    94  9.3000000000000D-01  6.4411970402851D-02 -2.5685778164344D-01
    95  9.4000000000000D-01  5.2977790311824D-02 -2.0404982980103D-01
    96  9.5000000000000D-01  4.1405660900526D-02 -1.5470651053027D-01
    97  9.6000000000000D-01  3.0336725044763D-02 -1.1028852304280D-01
    98  9.7000000000000D-01  2.0357367997726D-02 -7.2095415521589D-02
    99  9.8000000000000D-01  1.1991089976630D-02 -4.1254952333421D-02
   100  9.9000000000000D-01  5.6303711048219D-03 -1.8534942172971D-02
   101  1.0000000000000D+00  1.7927863868463D-03 -5.0809701951540D-03
   102  1.0100000000000D+00  4.1834572355000D-04 -4.6393793799317D-04
   103  1.0200000000000D+00  2.3603890698824D-05  3.6603196215115D-05
   104  1.0300000000000D+00 -1.0666645291460D-05 -4.0769591603954D-05
   105  1.0400000000000D+00  5.0910443215272D-06  6.3040080953478D-06
   106  1.0500000000000D+00 -1.0749730682059D-06  1.3023681511912D-06
   107  1.0600000000000D+00  0.0000000000000D+00  0.0000000000000D+00
   108  1.0700000000000D+00  0.0000000000000D+00  0.0000000000000D+00
   109  1.0800000000000D+00  0.0000000000000D+00  0.0000000000000D+00
   110  1.0900000000000D+00  0.0000000000000D+00  0.0000000000000D+00
   111  1.1000000000000D+00  0.0000000000000D+00  0.0000000000000D+00
   112  1.1100000000000D+00  0.0000000000000D+00  0.0000000000000D+00
   113  1.1200000000000D+00  0.0000000000000D+00  0.0000000000000D+00
   114  1.1300000000000D+00  0.0000000000000D+00  0.0000000000000D+00
   115  1.1400000000000D+00  0.0000000000000D+00  0.0000000000000D+00
   116  1.1500000000000D+00  0.0000000000000D+00  0.0000000000000D+00
   117  1.1600000000000D+00  0.0000000000000D+00  0.0000000000000D+00
   118  1.1700000000000D+00  0.0000000000000D+00  0.0000000000000D+00
   119  1.1800000000000D+00  0.0000000000000D+00  0.0000000000000D+00
   120  1.1900000000000D+00  0.0000000000000D+00  0.0000000000000D+00
   121  1.2000000000000D+00  0.0000000000000D+00  0.0000000000000D+00
   122  1.2100000000000D+00  0.0000000000000D+00  0.0000000000000D+00
   123  1.2200000000000D+00  0.0000000000000D+00  0.0000000000000D+00
   124  1.2300000000000D+00  0.0000000000000D+00  0.0000000000000D+00
   125  1.2400000000000D+00  0.0000000000000D+00  0.0000000000000D+00
   126  1.2500000000000D+00  0.0000000000000D+00  0.0000000000000D+00
   127  1.2600000000000D+00  0.0000000000000D+00  0.0000000000000D+00
   128  1.2700000000000D+00  0.0000000000000D+00  0.0000000000000D+00
   129  1.2800000000000D+00  0.0000000000000D+00  0.0000000000000D+00
   130  1.2900000000000D+00  0.0000000000000D+00  0.0000000000000D+00
   131  1.3000000000000D+00  0.0000000000000D+00  0.0000000000000D+00
   132  1.3100000000000D+00  0.0000000000000D+00  0.0000000000000D+00
   133  1.3200000000000D+00  0.0000000000000D+00  0.0000000000000D+00
   134  1.3300000000000D+00  0.0000000000000D+00  0.0000000000000D+00
   135  1.3400000000000D+00  0.0000000000000D+00  0.0000000000000D+00
   136  1.3500000000000D+00  0.0000000000000D+00  0.0000000000000D+00
   137  1.3600000000000D+00  0.0000000000000D+00  0.0000000000000D+00
   138  1.3700000000000D+00  0.0000000000000D+00  0.0000000000000D+00
   139  1.3800000000000D+00  0.0000000000000D+00  0.0000000000000D+00
   140  1.3900000000000D+00  0.0000000000000D+00  0.0000000000000D+00
   141  1.4000000000000D+00  0.0000000000000D+00  0.0000000000000D+00
   142  1.4100000000000D+00  0.0000000000000D+00  0.0000000000000D+00
   143  1.4200000000000D+00  0.0000000000000D+00  0.0000000000000D+00
   144  1.4300000000000D+00  0.0000000000000D+00  0.0000000000000D+00
   145  1.4400000000000D+00  0.0000000000000D+00  0.0000000000000D+00
   146  1.4500000000000D+00  0.0000000000000D+00  0.0000000000000D+00
   147  1.4600000000000D+00  0.0000000000000D+00  0.0000000000000D+00
   148  1.4700000000000D+00  0.0000000000000D+00  0.0000000000000D+00
   149  1.4800000000000D+00  0.0000000000000D+00  0.0000000000000D+00
   150  1.4900000000000D+00  0.0000000000000D+00  0.0000000000000D+00
   151  1.5000000000000D+00  0.0000000000000D+00  0.0000000000000D+00
   152  1.5100000000000D+00  0.0000000000000D+00  0.0000000000000D+00
   153  1.5200000000000D+00  0.0000000000000D+00  0.0000000000000D+00
   154  1.5300000000000D+00  0.0000000000000D+00  0.0000000000000D+00
   155  1.5400000000000D+00  0.0000000000000D+00  0.0000000000000D+00
   156  1.5500000000000D+00  0.0000000000000D+00  0.0000000000000D+00
   157  1.5600000000000D+00  0.0000000000000D+00  0.0000000000000D+00
   158  1.5700000000000D+00  0.0000000000000D+00  0.0000000000000D+00
   159  1.5800000000000D+00  0.0000000000000D+00  0.0000000000000D+00
   160  1.5900000000000D+00  0.0000000000000D+00  0.0000000000000D+00
   161  1.6000000000000D+00  0.0000000000000D+00  0.0000000000000D+00
   162  1.6100000000000D+00  0.0000000000000D+00  0.0000000000000D+00
   163  1.6200000000000D+00  0.0000000000000D+00  0.0000000000000D+00
   164  1.6300000000000D+00  0.0000000000000D+00  0.0000000000000D+00
   165  1.6400000000000D+00  0.0000000000000D+00  0.0000000000000D+00
   166  1.6500000000000D+00  0.0000000000000D+00  0.0000000000000D+00
   167  1.6600000000000D+00  0.0000000000000D+00  0.0000000000000D+00
   168  1.6700000000000D+00  0.0000000000000D+00  0.0000000000000D+00
   169  1.6800000000000D+00  0.0000000000000D+00  0.0000000000000D+00
   170  1.6900000000000D+00  0.0000000000000D+00  0.0000000000000D+00
   171  1.7000000000000D+00  0.0000000000000D+00  0.0000000000000D+00
   172  1.7100000000000D+00  0.0000000000000D+00  0.0000000000000D+00
   173  1.7200000000000D+00  0.0000000000000D+00  0.0000000000000D+00
   174  1.7300000000000D+00  0.0000000000000D+00  0.0000000000000D+00
   175  1.7400000000000D+00  0.0000000000000D+00  0.0000000000000D+00
   176  1.7500000000000D+00  0.0000000000000D+00  0.0000000000000D+00
   177  1.7600000000000D+00  0.0000000000000D+00  0.0000000000000D+00
   178  1.7700000000000D+00  0.0000000000000D+00  0.0000000000000D+00
   179  1.7800000000000D+00  0.0000000000000D+00  0.0000000000000D+00
   180  1.7900000000000D+00  0.0000000000000D+00  0.0000000000000D+00
   181  1.8000000000000D+00  0.0000000000000D+00  0.0000000000000D+00
   182  1.8100000000000D+00  0.0000000000000D+00  0.0000000000000D+00
   183  1.8200000000000D+00  0.0000000000000D+00  0.0000000000000D+00
   184  1.8300000000000D+00  0.0000000000000D+00  0.0000000000000D+00
   185  1.8400000000000D+00  0.0000000000000D+00  0.0000000000000D+00
   186  1.8500000000000D+00  0.0000000000000D+00  0.0000000000000D+00
   187  1.8600000000000D+00  0.0000000000000D+00  0.0000000000000D+00
   188  1.8700000000000D+00  0.0000000000000D+00  0.0000000000000D+00
   189  1.8800000000000D+00  0.0000000000000D+00  0.0000000000000D+00
   190  1.8900000000000D+00  0.0000000000000D+00  0.0000000000000D+00
   191  1.9000000000000D+00  0.0000000000000D+00  0.0000000000000D+00
   192  1.9100000000000D+00  0.0000000000000D+00  0.0000000000000D+00
   193  1.9200000000000D+00  0.0000000000000D+00  0.0000000000000D+00
   194  1.9300000000000D+00  0.0000000000000D+00  0.0000000000000D+00
   195  1.9400000000000D+00  0.0000000000000D+00  0.0000000000000D+00
   196  1.9500000000000D+00  0.0000000000000D+00  0.0000000000000D+00
   197  1.9600000000000D+00  0.0000000000000D+00  0.0000000000000D+00
   198  1.9700000000000D+00  0.0000000000000D+00  0.0000000000000D+00
   199  1.9800000000000D+00  0.0000000000000D+00  0.0000000000000D+00
   200  1.9900000000000D+00  0.0000000000000D+00  0.0000000000000D+00
   201  2.0000000000000D+00  0.0000000000000D+00  0.0000000000000D+00
   202  2.0100000000000D+00  0.0000000000000D+00  0.0000000000000D+00
   203  2.0200000000000D+00  0.0000000000000D+00  0.0000000000000D+00
   204  2.0300000000000D+00  0.0000000000000D+00  0.0000000000000D+00
   205  2.0400000000000D+00  0.0000000000000D+00  0.0000000000000D+00
   206  2.0500000000000D+00  0.0000000000000D+00  0.0000000000000D+00
   207  2.0600000000000D+00  0.0000000000000D+00  0.0000000000000D+00
   208  2.0700000000000D+00  0.0000000000000D+00  0.0000000000000D+00
   209  2.0800000000000D+00  0.0000000000000D+00  0.0000000000000D+00
   210  2.0900000000000D+00  0.0000000000000D+00  0.0000000000000D+00
   211  2.1000000000000D+00  0.0000000000000D+00  0.0000000000000D+00
   212  2.1100000000000D+00  0.0000000000000D+00  0.0000000000000D+00
   213  2.1200000000000D+00  0.0000000000000D+00  0.0000000000000D+00
   214  2.1300000000000D+00  0.0000000000000D+00  0.0000000000000D+00
   215  2.1400000000000D+00  0.0000000000000D+00  0.0000000000000D+00
   216  2.1500000000000D+00  0.0000000000000D+00  0.0000000000000D+00
   217  2.1600000000000D+00  0.0000000000000D+00  0.0000000000000D+00
   218  2.1700000000000D+00  0.0000000000000D+00  0.0000000000000D+00
   219  2.1800000000000D+00  0.0000000000000D+00  0.0000000000000D+00
   220  2.1900000000000D+00  0.0000000000000D+00  0.0000000000000D+00
   221  2.2000000000000D+00  0.0000000000000D+00  0.0000000000000D+00
   222  2.2100000000000D+00  0.0000000000000D+00  0.0000000000000D+00
   223  2.2200000000000D+00  0.0000000000000D+00  0.0000000000000D+00
   224  2.2300000000000D+00  0.0000000000000D+00  0.0000000000000D+00
   225  2.2400000000000D+00  0.0000000000000D+00  0.0000000000000D+00
   226  2.2500000000000D+00  0.0000000000000D+00  0.0000000000000D+00
   227  2.2600000000000D+00  0.0000000000000D+00  0.0000000000000D+00
   228  2.2700000000000D+00  0.0000000000000D+00  0.0000000000000D+00
   229  2.2800000000000D+00  0.0000000000000D+00  0.0000000000000D+00
   230  2.2900000000000D+00  0.0000000000000D+00  0.0000000000000D+00
   231  2.3000000000000D+00  0.0000000000000D+00  0.0000000000000D+00
   232  2.3100000000000D+00  0.0000000000000D+00  0.0000000000000D+00
   233  2.3200000000000D+00  0.0000000000000D+00  0.0000000000000D+00
   234  2.3300000000000D+00  0.0000000000000D+00  0.0000000000000D+00
   235  2.3400000000000D+00  0.0000000000000D+00  0.0000000000000D+00
   236  2.3500000000000D+00  0.0000000000000D+00  0.0000000000000D+00
   237  2.3600000000000D+00  0.0000000000000D+00  0.0000000000000D+00
   238  2.3700000000000D+00  0.0000000000000D+00  0.0000000000000D+00
   239  2.3800000000000D+00  0.0000000000000D+00  0.0000000000000D+00
   240  2.3900000000000D+00  0.0000000000000D+00  0.0000000000000D+00
   241  2.4000000000000D+00  0.0000000000000D+00  0.0000000000000D+00
   242  2.4100000000000D+00  0.0000000000000D+00  0.0000000000000D+00
   243  2.4200000000000D+00  0.0000000000000D+00  0.0000000000000D+00
   244  2.4300000000000D+00  0.0000000000000D+00  0.0000000000000D+00
   245  2.4400000000000D+00  0.0000000000000D+00  0.0000000000000D+00
   246  2.4500000000000D+00  0.0000000000000D+00  0.0000000000000D+00
   247  2.4600000000000D+00  0.0000000000000D+00  0.0000000000000D+00
   248  2.4700000000000D+00  0.0000000000000D+00  0.0000000000000D+00
   249  2.4800000000000D+00  0.0000000000000D+00  0.0000000000000D+00
   250  2.4900000000000D+00  0.0000000000000D+00  0.0000000000000D+00
   251  2.5000000000000D+00  0.0000000000000D+00  0.0000000000000D+00
   252  2.5100000000000D+00  0.0000000000000D+00  0.0000000000000D+00
   253  2.5200000000000D+00  0.0000000000000D+00  0.0000000000000D+00
   254  2.5300000000000D+00  0.0000000000000D+00  0.0000000000000D+00
   255  2.5400000000000D+00  0.0000000000000D+00  0.0000000000000D+00
   256  2.5500000000000D+00  0.0000000000000D+00  0.0000000000000D+00
   257  2.5600000000000D+00  0.0000000000000D+00  0.0000000000000D+00
   258  2.5700000000000D+00  0.0000000000000D+00  0.0000000000000D+00
   259  2.5800000000000D+00  0.0000000000000D+00  0.0000000000000D+00
   260  2.5900000000000D+00  0.0000000000000D+00  0.0000000000000D+00
   261  2.6000000000000D+00  0.0000000000000D+00  0.0000000000000D+00
   262  2.6100000000000D+00  0.0000000000000D+00  0.0000000000000D+00
   263  2.6200000000000D+00  0.0000000000000D+00  0.0000000000000D+00
   264  2.6300000000000D+00  0.0000000000000D+00  0.0000000000000D+00
   265  2.6400000000000D+00  0.0000000000000D+00  0.0000000000000D+00
   266  2.6500000000000D+00  0.0000000000000D+00  0.0000000000000D+00
   267  2.6600000000000D+00  0.0000000000000D+00  0.0000000000000D+00
   268  2.6700000000000D+00  0.0000000000000D+00  0.0000000000000D+00
   269  2.6800000000000D+00  0.0000000000000D+00  0.0000000000000D+00
   270  2.6900000000000D+00  0.0000000000000D+00  0.0000000000000D+00
   271  2.7000000000000D+00  0.0000000000000D+00  0.0000000000000D+00
   272  2.7100000000000D+00  0.0000000000000D+00  0.0000000000000D+00
   273  2.7200000000000D+00  0.0000000000000D+00  0.0000000000000D+00
   274  2.7300000000000D+00  0.0000000000000D+00  0.0000000000000D+00
   275  2.7400000000000D+00  0.0000000000000D+00  0.0000000000000D+00
   276  2.7500000000000D+00  0.0000000000000D+00  0.0000000000000D+00
   277  2.7600000000000D+00  0.0000000000000D+00  0.0000000000000D+00
   278  2.7700000000000D+00  0.0000000000000D+00  0.0000000000000D+00
   279  2.7800000000000D+00  0.0000000000000D+00  0.0000000000000D+00
   280  2.7900000000000D+00  0.0000000000000D+00  0.0000000000000D+00
   281  2.8000000000000D+00  0.0000000000000D+00  0.0000000000000D+00
   282  2.8100000000000D+00  0.0000000000000D+00  0.0000000000000D+00
   283  2.8200000000000D+00  0.0000000000000D+00  0.0000000000000D+00
   284  2.8300000000000D+00  0.0000000000000D+00  0.0000000000000D+00
   285  2.8400000000000D+00  0.0000000000000D+00  0.0000000000000D+00
   286  2.8500000000000D+00  0.0000000000000D+00  0.0000000000000D+00
   287  2.8600000000000D+00  0.0000000000000D+00  0.0000000000000D+00
   288  2.8700000000000D+00  0.0000000000000D+00  0.0000000000000D+00
   289  2.8800000000000D+00  0.0000000000000D+00  0.0000000000000D+00
   290  2.8900000000000D+00  0.0000000000000D+00  0.0000000000000D+00
   291  2.9000000000000D+00  0.0000000000000D+00  0.0000000000000D+00
   292  2.9100000000000D+00  0.0000000000000D+00  0.0000000000000D+00
   293  2.9200000000000D+00  0.0000000000000D+00  0.0000000000000D+00
   294  2.9300000000000D+00  0.0000000000000D+00  0.0000000000000D+00
   295  2.9400000000000D+00  0.0000000000000D+00  0.0000000000000D+00
   296  2.9500000000000D+00  0.0000000000000D+00  0.0000000000000D+00
   297  2.9600000000000D+00  0.0000000000000D+00  0.0000000000000D+00
   298  2.9700000000000D+00  0.0000000000000D+00  0.0000000000000D+00
   299  2.9800000000000D+00  0.0000000000000D+00  0.0000000000000D+00
   300  2.9900000000000D+00  0.0000000000000D+00  0.0000000000000D+00
   1                        -5.0332111485139D-01
     1  0.0000000000000D+00 -1.1507999516658D-06
     2  1.0000000000000D-02 -9.3498813235517D-03
     3  2.0000000000000D-02 -3.7035805624386D-02
     4  3.0000000000000D-02 -8.1984762604023D-02
     5  4.0000000000000D-02 -1.4246797454897D-01
     6  5.0000000000000D-02 -2.1618707152955D-01
     7  6.0000000000000D-02 -3.0038853290782D-01
     8  7.0000000000000D-02 -3.9200056620935D-01
     9  8.0000000000000D-02 -4.8778544361387D-01
    10  9.0000000000000D-02 -5.8449951609394D-01
    11  1.0000000000000D-01 -6.7905271632679D-01
    12  1.1000000000000D-01 -7.6865936527428D-01
    13  1.2000000000000D-01 -8.5097251463630D-01
    14  1.3000000000000D-01 -9.2419486854142D-01
    15  1.4000000000000D-01 -9.8716049351912D-01
    16  1.5000000000000D-01 -1.0393829889391D+00
    17  1.6000000000000D-01 -1.0810674786844D+00
    18  1.7000000000000D-01 -1.1130856153741D+00
    19  1.8000000000000D-01 -1.1369146701391D+00
    20  1.9000000000000D-01 -1.1545436200458D+00
    21  2.0000000000000D-01 -1.1683508497278D+00
    22  2.1000000000000D-01 -1.1809595678587D+00
    23  2.2000000000000D-01 -1.1950782275032D+00
    24  2.3000000000000D-01 -1.2133340711103D+00
    25  2.4000000000000D-01 -1.2381083522624D+00
    26  2.5000000000000D-01 -1.2713817931149D+00
    27  2.6000000000000D-01 -1.3145984154334D+00
    28  2.7000000000000D-01 -1.3685550520073D+00
    29  2.8000000000000D-01 -1.4333226420897D+00
    30  2.9000000000000D-01 -1.5082038959920D+00
    31  3.0000000000000D-01 -1.5917301525842D+00
    32  3.1000000000000D-01 -1.6816983341153D+00
    33  3.2000000000000D-01 -1.7752469187156D+00
    34  3.3000000000000D-01 -1.8689678991964D+00
    35  3.4000000000000D-01 -1.9590498734810D+00
    36  3.5000000000000D-01 -2.0414458075917D+00
    37  3.6000000000000D-01 -2.1120577071352D+00
    38  3.7000000000000D-01 -2.1669294939309D+00
    39  3.8000000000000D-01 -2.2024388599134D+00
    40  3.9000000000000D-01 -2.2154787898373D+00
    41  4.0000000000000D-01 -2.2036198153982D+00
    42  4.1000000000000D-01 -2.1652448720117D+00
    43  4.2000000000000D-01 -2.0996498402818D+00
    44  4.3000000000000D-01 -2.0071044118184D+00
    45  4.4000000000000D-01 -1.8888697512413D+00
    46  4.5000000000000D-01 -1.7471714467252D+00
    47  4.6000000000000D-01 -1.5851283544463D+00
    48  4.7000000000000D-01 -1.4066400468395D+00
    49  4.8000000000000D-01 -1.2162375694805D+00
    50  4.9000000000000D-01 -1.0189039999340D+00
    51  5.0000000000000D-01 -8.1987279698860D-01
    52  5.1000000000000D-01 -6.2441305666923D-01
    53  5.2000000000000D-01 -4.3761149529509D-01
    54  5.3000000000000D-01 -2.6416122383415D-01
    55  5.4000000000000D-01 -1.0816714719355D-01
    56  5.5000000000000D-01  2.7022876966981D-02
    57  5.6000000000000D-01  1.3895311663258D-01
    58  5.7000000000000D-01  2.2615480103277D-01
    59  5.8000000000000D-01  2.8819606124568D-01
    60  5.9000000000000D-01  3.2568439332503D-01
    61  6.0000000000000D-01  3.4022124784893D-01
    62  6.1000000000000D-01  3.3431058339013D-01
    63  6.2000000000000D-01  3.1122535683814D-01
    64  6.3000000000000D-01  2.7483790116622D-01
    65  6.4000000000000D-01  2.2942182899238D-01
    66  6.5000000000000D-01  1.7943444198518D-01
    67  6.6000000000000D-01  1.2928954819140D-01
    68  6.7000000000000D-01  8.3131042604826D-02
    69  6.8000000000000D-01  4.4617578151152D-02
    70  6.9000000000000D-01  1.6715532921640D-02
    71  7.0000000000000D-01  1.6962972469955D-03
    72  7.1000000000000D-01 -6.6930393863548D-04
    73  7.2000000000000D-01  1.3110911358196D-04
    74  7.3000000000000D-01 -1.6952666882351D-05
    75  7.4000000000000D-01  2.8584416670202D-07
    76  7.5000000000000D-01  0.0000000000000D+00
    77  7.6000000000000D-01  0.0000000000000D+00
    78  7.7000000000000D-01  0.0000000000000D+00
    79  7.8000000000000D-01  0.0000000000000D+00
    80  7.9000000000000D-01  0.0000000000000D+00
    81  8.0000000000000D-01  0.0000000000000D+00
    82  8.1000000000000D-01  0.0000000000000D+00
    83  8.2000000000000D-01  0.0000000000000D+00
    84  8.3000000000000D-01  0.0000000000000D+00
    85  8.4000000000000D-01  0.0000000000000D+00
    86  8.5000000000000D-01  0.0000000000000D+00
    87  8.6000000000000D-01  0.0000000000000D+00
    88  8.7000000000000D-01  0.0000000000000D+00
    89  8.8000000000000D-01  0.0000000000000D+00
    90  8.9000000000000D-01  0.0000000000000D+00
    91  9.0000000000000D-01  0.0000000000000D+00
    92  9.1000000000000D-01  0.0000000000000D+00
    93  9.2000000000000D-01  0.0000000000000D+00
    94  9.3000000000000D-01  0.0000000000000D+00
    95  9.4000000000000D-01  0.0000000000000D+00
    96  9.5000000000000D-01  0.0000000000000D+00
    97  9.6000000000000D-01  0.0000000000000D+00
    98  9.7000000000000D-01  0.0000000000000D+00
    99  9.8000000000000D-01  0.0000000000000D+00
   100  9.9000000000000D-01  0.0000000000000D+00
   101  1.0000000000000D+00  0.0000000000000D+00
   102  1.0100000000000D+00  0.0000000000000D+00
   103  1.0200000000000D+00  0.0000000000000D+00
   104  1.0300000000000D+00  0.0000000000000D+00
   105  1.0400000000000D+00  0.0000000000000D+00
   106  1.0500000000000D+00  0.0000000000000D+00
   107  1.0600000000000D+00  0.0000000000000D+00
   108  1.0700000000000D+00  0.0000000000000D+00
   109  1.0800000000000D+00  0.0000000000000D+00
   110  1.0900000000000D+00  0.0000000000000D+00
   111  1.1000000000000D+00  0.0000000000000D+00
   112  1.1100000000000D+00  0.0000000000000D+00
   113  1.1200000000000D+00  0.0000000000000D+00
   114  1.1300000000000D+00  0.0000000000000D+00
   115  1.1400000000000D+00  0.0000000000000D+00
   116  1.1500000000000D+00  0.0000000000000D+00
   117  1.1600000000000D+00  0.0000000000000D+00
   118  1.1700000000000D+00  0.0000000000000D+00
   119  1.1800000000000D+00  0.0000000000000D+00
   120  1.1900000000000D+00  0.0000000000000D+00
   121  1.2000000000000D+00  0.0000000000000D+00
   122  1.2100000000000D+00  0.0000000000000D+00
   123  1.2200000000000D+00  0.0000000000000D+00
   124  1.2300000000000D+00  0.0000000000000D+00
   125  1.2400000000000D+00  0.0000000000000D+00
   126  1.2500000000000D+00  0.0000000000000D+00
   127  1.2600000000000D+00  0.0000000000000D+00
   128  1.2700000000000D+00  0.0000000000000D+00
   129  1.2800000000000D+00  0.0000000000000D+00
   130  1.2900000000000D+00  0.0000000000000D+00
   131  1.3000000000000D+00  0.0000000000000D+00
   132  1.3100000000000D+00  0.0000000000000D+00
   133  1.3200000000000D+00  0.0000000000000D+00
   134  1.3300000000000D+00  0.0000000000000D+00
   135  1.3400000000000D+00  0.0000000000000D+00
   136  1.3500000000000D+00  0.0000000000000D+00
   137  1.3600000000000D+00  0.0000000000000D+00
   138  1.3700000000000D+00  0.0000000000000D+00
   139  1.3800000000000D+00  0.0000000000000D+00
   140  1.3900000000000D+00  0.0000000000000D+00
   141  1.4000000000000D+00  0.0000000000000D+00
   142  1.4100000000000D+00  0.0000000000000D+00
   143  1.4200000000000D+00  0.0000000000000D+00
   144  1.4300000000000D+00  0.0000000000000D+00
   145  1.4400000000000D+00  0.0000000000000D+00
   146  1.4500000000000D+00  0.0000000000000D+00
   147  1.4600000000000D+00  0.0000000000000D+00
   148  1.4700000000000D+00  0.0000000000000D+00
   149  1.4800000000000D+00  0.0000000000000D+00
   150  1.4900000000000D+00  0.0000000000000D+00
   151  1.5000000000000D+00  0.0000000000000D+00
   152  1.5100000000000D+00  0.0000000000000D+00
   153  1.5200000000000D+00  0.0000000000000D+00
   154  1.5300000000000D+00  0.0000000000000D+00
   155  1.5400000000000D+00  0.0000000000000D+00
   156  1.5500000000000D+00  0.0000000000000D+00
   157  1.5600000000000D+00  0.0000000000000D+00
   158  1.5700000000000D+00  0.0000000000000D+00
   159  1.5800000000000D+00  0.0000000000000D+00
   160  1.5900000000000D+00  0.0000000000000D+00
   161  1.6000000000000D+00  0.0000000000000D+00
   162  1.6100000000000D+00  0.0000000000000D+00
   163  1.6200000000000D+00  0.0000000000000D+00
   164  1.6300000000000D+00  0.0000000000000D+00
   165  1.6400000000000D+00  0.0000000000000D+00
   166  1.6500000000000D+00  0.0000000000000D+00
   167  1.6600000000000D+00  0.0000000000000D+00
   168  1.6700000000000D+00  0.0000000000000D+00
   169  1.6800000000000D+00  0.0000000000000D+00
   170  1.6900000000000D+00  0.0000000000000D+00
   171  1.7000000000000D+00  0.0000000000000D+00
   172  1.7100000000000D+00  0.0000000000000D+00
   173  1.7200000000000D+00  0.0000000000000D+00
   174  1.7300000000000D+00  0.0000000000000D+00