Tl    ONCVPSP-3.3.0  r_core=   2.10510   2.60929   2.00701
     81.0000     13.0000      220117    zatom,zion,pspd
     8      11   2     4   600     0    pspcod,pspxc,lmax,lloc,mmax,r2well
  5.99000000  0.00000000  0.00000000    rchrg fchrg qchrg
     2     2     2     0     0    nproj
     1     1           extension_switch
   0                         6.2954403238170D+00  9.0735158391072D-01
     1  0.0000000000000D+00 -7.6058326303752D-12 -3.4978062113389D-12
     2  1.0000000000000D-02  1.7061803873749D-02  3.2583992445233D-03
     3  2.0000000000000D-02  3.4110408072701D-02  6.4859364149874D-03
     4  3.0000000000000D-02  5.1132689826857D-02  9.6518628217500D-03
     5  4.0000000000000D-02  6.8115679746680D-02  1.2725656220299D-02
     6  5.0000000000000D-02  8.5046637442400D-02  1.5677133225422D-02
     7  6.0000000000000D-02  1.0191312586357D-01  1.8476560757751D-02
     8  7.0000000000000D-02  1.1870308394126D-01  2.1094766204160D-02
     9  8.0000000000000D-02  1.3540489712289D-01  2.3503245976980D-02
    10  9.0000000000000D-02  1.5200746539910D-01  2.5674272161290D-02
    11  1.0000000000000D-01  1.6850026843354D-01  2.7580996944618D-02
    12  1.1000000000000D-01  1.8487342741930D-01  2.9197554529420D-02
    13  1.2000000000000D-01  2.0111776330083D-01  3.0499160235325D-02
    14  1.3000000000000D-01  2.1722485101624D-01  3.1462206505754D-02
    15  1.4000000000000D-01  2.3318706943355D-01  3.2064355541711D-02
    16  1.5000000000000D-01  2.4899764667355D-01  3.2284628294585D-02
    17  1.6000000000000D-01  2.6465070053353D-01  3.2103489559453D-02
    18  1.7000000000000D-01  2.8014127374844D-01  3.1502928920824D-02
    19  1.8000000000000D-01  2.9546536384987D-01  3.0466537313661D-02
    20  1.9000000000000D-01  3.1061994740864D-01  2.8979578974282D-02
    21  2.0000000000000D-01  3.2560299847248D-01  2.7029058567795D-02
    22  2.1000000000000D-01  3.4041350103816D-01  2.4603783291619D-02
    23  2.2000000000000D-01  3.5505145542516D-01  2.1694419767728D-02
    24  2.3000000000000D-01  3.6951787844697D-01  1.8293545550198D-02
    25  2.4000000000000D-01  3.8381479730637D-01  1.4395695088456D-02
    26  2.5000000000000D-01  3.9794523717049D-01  9.9974000015782D-03
    27  2.6000000000000D-01  4.1191320241296D-01  5.0972235335157D-03
    28  2.7000000000000D-01  4.2572365154124D-01 -3.0421092545452D-04
    29  2.8000000000000D-01  4.3938246585848D-01 -6.2041973503987D-03
    30  2.9000000000000D-01  4.5289641194092D-01 -1.2597930710017D-02
    31  3.0000000000000D-01  4.6627309804304D-01 -1.9478496779367D-02
    32  3.1000000000000D-01  4.7952092457390D-01 -2.6836868188615D-02
    33  3.2000000000000D-01  4.9264902881916D-01 -3.4661906743330D-02
    34  3.3000000000000D-01  5.0566722411338D-01 -4.2940372035711D-02
    35  3.4000000000000D-01  5.1858593369756D-01 -5.1656936349610D-02
    36  3.5000000000000D-01  5.3141611952547D-01 -6.0794205846441D-02
    37  3.6000000000000D-01  5.4416920631127D-01 -7.0332748002492D-02
    38  3.7000000000000D-01  5.5685700113769D-01 -8.0251125252171D-02
    39  3.8000000000000D-01  5.6949160897056D-01 -9.0525934775885D-02
    40  3.9000000000000D-01  5.8208534445055D-01 -1.0113185435536D-01
    41  4.0000000000000D-01  5.9465064035649D-01 -1.1204169420355D-01
    42  4.1000000000000D-01  6.0719995315662D-01 -1.2322645466100D-01
    43  4.2000000000000D-01  6.1974566608519D-01 -1.3465538963536D-01
    44  4.3000000000000D-01  6.3229999020016D-01 -1.4629607564605D-01
    45  4.4000000000000D-01  6.4487486389512D-01 -1.5811448632131D-01
    46  4.5000000000000D-01  6.5748185135347D-01 -1.7007507218120D-01
    47  4.6000000000000D-01  6.7013204044615D-01 -1.8214084552568D-01
    48  4.7000000000000D-01  6.8283594058519D-01 -1.9427347023440D-01
    49  4.8000000000000D-01  6.9560338105400D-01 -2.0643335627111D-01
    50  4.9000000000000D-01  7.0844341034219D-01 -2.1857975867377D-01
    51  5.0000000000000D-01  7.2136419701664D-01 -2.3067088079887D-01
    52  5.1000000000000D-01  7.3437293266275D-01 -2.4266398157788D-01
    53  5.2000000000000D-01  7.4747573742873D-01 -2.5451548653158D-01
    54  5.3000000000000D-01  7.6067756870348D-01 -2.6618110227877D-01
    55  5.4000000000000D-01  7.7398213345251D-01 -2.7761593426539D-01
    56  5.5000000000000D-01  7.8739180472849D-01 -2.8877460743079D-01
    57  5.6000000000000D-01  8.0090754286284D-01 -2.9961138951956D-01
    58  5.7000000000000D-01  8.1452882183124D-01 -3.1008031673885D-01
    59  5.8000000000000D-01  8.2825356127077D-01 -3.2013532145397D-01
    60  5.9000000000000D-01  8.4207806460835D-01 -3.2973036160803D-01
    61  6.0000000000000D-01  8.5599696373961D-01 -3.3881955154522D-01
    62  6.1000000000000D-01  8.7000317067480D-01 -3.4735729391201D-01
    63  6.2000000000000D-01  8.8408783654302D-01 -3.5529841230535D-01
    64  6.3000000000000D-01  8.9824031831884D-01 -3.6259828433293D-01
    65  6.4000000000000D-01  9.1244815360596D-01 -3.6921297474728D-01
    66  6.5000000000000D-01  9.2669704378087D-01 -3.7509936831216D-01
    67  6.6000000000000D-01  9.4097084576612D-01 -3.8021530205810D-01
    68  6.7000000000000D-01  9.5525157266752D-01 -3.8451969658219D-01
    69  6.8000000000000D-01  9.6951940347235D-01 -3.8797268604688D-01
    70  6.9000000000000D-01  9.8375270196723D-01 -3.9053574653193D-01
    71  7.0000000000000D-01  9.9792804499461D-01 -3.9217182239555D-01
    72  7.1000000000000D-01  1.0120202601246D+00 -3.9284545030073D-01
    73  7.2000000000000D-01  1.0260024727781D+00 -3.9252288056657D-01
    74  7.3000000000000D-01  1.0398461627917D+00 -3.9117219550625D-01
    75  7.4000000000000D-01  1.0535212303740D+00 -3.8876342441737D-01
    76  7.5000000000000D-01  1.0669960713541D+00 -3.8526865489504D-01
    77  7.6000000000000D-01  1.0802376615833D+00 -3.8066214014315D-01
    78  7.7000000000000D-01  1.0932116503009D+00 -3.7492040196497D-01
    79  7.8000000000000D-01  1.1058824622341D+00 -3.6802232912140D-01
    80  7.9000000000000D-01  1.1182134081547D+00 -3.5994927075255D-01
    81  8.0000000000000D-01  1.1301668035727D+00 -3.5068512456603D-01
    82  8.1000000000000D-01  1.1417040952016D+00 -3.4021641950526D-01
    83  8.2000000000000D-01  1.1527859947897D+00 -3.2853239261996D-01
    84  8.3000000000000D-01  1.1633726198688D+00 -3.1562505987188D-01
    85  8.4000000000000D-01  1.1734236409311D+00 -3.0148928062017D-01
    86  8.5000000000000D-01  1.1828984345087D+00 -2.8612281554240D-01
    87  8.6000000000000D-01  1.1917562415899D+00 -2.6952637775998D-01
    88  8.7000000000000D-01  1.1999563307753D+00 -2.5170367695060D-01
    89  8.8000000000000D-01  1.2074581655401D+00 -2.3266145624384D-01
    90  8.9000000000000D-01  1.2142215749429D+00 -2.1240952171112D-01
    91  9.0000000000000D-01  1.2202069270878D+00 -1.9096076427696D-01
    92  9.1000000000000D-01  1.2253753046279D+00 -1.6833117389422D-01
    93  9.2000000000000D-01  1.2296886815705D+00 -1.4453984584328D-01
    94  9.3000000000000D-01  1.2331101006273D+00 -1.1960897903203D-01
    95  9.4000000000000D-01  1.2356038503374D+00 -9.3563866192366D-02
    96  9.5000000000000D-01  1.2371356411761D+00 -6.6432875886864D-02
    97  9.6000000000000D-01  1.2376727798551D+00 -3.8247426258837D-02
    98  9.7000000000000D-01  1.2371843410105D+00 -9.0419504787783D-03
    99  9.8000000000000D-01  1.2356413354777D+00  2.1146146139825D-02
   100  9.9000000000000D-01  1.2330168743473D+00  5.2276537360899D-02
   101  1.0000000000000D+00  1.2292863280073D+00  8.4306035568191D-02
   102  1.0100000000000D+00  1.2244274793797D+00  1.1718865959236D-01
   103  1.0200000000000D+00  1.2184206705773D+00  1.5087571076472D-01
   104  1.0300000000000D+00  1.2112489422189D+00  1.8531585711685D-01
   105  1.0400000000000D+00  1.2028981646634D+00  2.2045522562304D-01
   106  1.0500000000000D+00  1.1933571604458D+00  2.5623750235968D-01
   107  1.0600000000000D+00  1.1826178172269D+00  2.9260404043352D-01
   108  1.0700000000000D+00  1.1706751905964D+00  3.2949397550739D-01
   109  1.0800000000000D+00  1.1575275961081D+00  3.6684434872885D-01
   110  1.0900000000000D+00  1.1431766899601D+00  4.0459023684502D-01
   111  1.1000000000000D+00  1.1276275377770D+00  4.4266488926289D-01
   112  1.1100000000000D+00  1.1108886709915D+00  4.8099987179407D-01
   113  1.1200000000000D+00  1.0929721303738D+00  5.1952521679811D-01
   114  1.1300000000000D+00  1.0738934963060D+00  5.5816957941762D-01
   115  1.1400000000000D+00  1.0536719054533D+00  5.9686039957567D-01
   116  1.1500000000000D+00  1.0323300535330D+00  6.3552406938695D-01
   117  1.1600000000000D+00  1.0098941839454D+00  6.7408610561154D-01
   118  1.1700000000000D+00  9.8639406208732D-01  7.1247132675976D-01
   119  1.1800000000000D+00  9.6186293523753D-01  7.5060403443627D-01
   120  1.1900000000000D+00  9.3633747794443D-01  7.8840819849820D-01
   121  1.2000000000000D+00  9.0985772293420D-01  8.2580764557666D-01
   122  1.2100000000000D+00  8.8246697761252D-01  8.6272625049757D-01
   123  1.2200000000000D+00  8.5421172629463D-01  8.9908813012225D-01
   124  1.2300000000000D+00  8.2514151835733D-01  9.3481783911371D-01
   125  1.2400000000000D+00  7.9530884259369D-01  9.6984056711631D-01
   126  1.2500000000000D+00  7.6476898810491D-01  1.0040823368271D+00
   127  1.2600000000000D+00  7.3357989210030D-01  1.0374702024287D+00
   128  1.2700000000000D+00  7.0180197509150D-01  1.0699324478360D+00
   129  1.2800000000000D+00  6.6949796400396D-01  1.1013987842033D+00
   130  1.2900000000000D+00  6.3673270375272D-01  1.1318005461382D+00
   131  1.3000000000000D+00  6.0357295796066D-01  1.1610708860484D+00
   132  1.3100000000000D+00  5.7008719950880D-01  1.1891449660575D+00
   133  1.3200000000000D+00  5.3634539163745D-01  1.2159601469140D+00
   134  1.3300000000000D+00  5.0241876044321D-01  1.2414561733206D+00
   135  1.3400000000000D+00  4.6837955959822D-01  1.2655753551126D+00
   136  1.3500000000000D+00  4.3430082817314D-01  1.2882627437103D+00
   137  1.3600000000000D+00  4.0025614253718D-01  1.3094663032861D+00
   138  1.3700000000000D+00  3.6631936326758D-01  1.3291370760810D+00
   139  1.3800000000000D+00  3.3256437809492D-01  1.3472293413151D+00
   140  1.3900000000000D+00  2.9906484193081D-01  1.3637007671660D+00
   141  1.4000000000000D+00  2.6589391500242D-01  1.3785125552566D+00
   142  1.4100000000000D+00  2.3312400021665D-01  1.3916295771614D+00
   143  1.4200000000000D+00  2.0082648081855D-01  1.4030205024171D+00
   144  1.4300000000000D+00  1.6907145947046D-01  1.4126579175370D+00
   145  1.4400000000000D+00  1.3792749985181D-01  1.4205184356093D+00
   146  1.4500000000000D+00  1.0746137190824D-01  1.4265827959614D+00
   147  1.4600000000000D+00  7.7737801845814D-02  1.4308359535410D+00
   148  1.4700000000000D+00  4.8819227978341D-02  1.4332671575621D+00
   149  1.4800000000000D+00  2.0765563529034D-02  1.4338700190529D+00
   150  1.4900000000000D+00 -6.3660325957933D-03  1.4326425669962D+00
   151  1.5000000000000D+00 -3.2521375919637D-02  1.4295872926550D+00
   152  1.5100000000000D+00 -5.7649466529250D-02  1.4247111819284D+00
   153  1.5200000000000D+00 -8.1702688064132D-02  1.4180257353210D+00
   154  1.5300000000000D+00 -1.0463699480792D-01  1.4095469754585D+00
   155  1.5400000000000D+00 -1.2641208583095D-01  1.3992954418336D+00
   156  1.5500000000000D+00 -1.4699156542357D-01  1.3872961727041D+00
   157  1.5600000000000D+00 -1.6634308901422D-01  1.3735786740038D+00
   158  1.5700000000000D+00 -1.8443849374108D-01  1.3581768751414D+00
   159  1.5800000000000D+00 -2.0125391319426D-01  1.3411290717508D+00
   160  1.5900000000000D+00 -2.1676987539064D-01  1.3224778552099D+00
   161  1.6000000000000D+00 -2.3097138387681D-01  1.3022700292050D+00
   162  1.6100000000000D+00 -2.4384798089736D-01  1.2805565130989D+00
   163  1.6200000000000D+00 -2.5539379293107D-01  1.2573922325896D+00
   164  1.6300000000000D+00 -2.6560755743839D-01  1.2328359973842D+00
   165  1.6400000000000D+00 -2.7449263144688D-01  1.2069503665259D+00
   166  1.6500000000000D+00 -2.8205698089372D-01  1.1798015011549D+00
   167  1.6600000000000D+00 -2.8831315152135D-01  1.1514590054066D+00
   168  1.6700000000000D+00 -2.9327822041859D-01  1.1219957553297D+00
   169  1.6800000000000D+00 -2.9697372915668D-01  1.0914877165808D+00
   170  1.6900000000000D+00 -2.9942559777103D-01  1.0600137508706D+00
   171  1.7000000000000D+00 -3.0066402072342D-01  1.0276554119822D+00
   172  1.7100000000000D+00 -3.0072334421385D-01  9.9449673140780D-01
   173  1.7200000000000D+00 -2.9964192620531D-01  9.6062399450452D-01
   174  1.7300000000000D+00 -2.9746197859622D-01  9.2612550726100D-01
   175  1.7400000000000D+00 -2.9422939317712D-01  8.9109135466999D-01
   176  1.7500000000000D+00 -2.8999355081715D-01  8.5561315082367D-01
   177  1.7600000000000D+00 -2.8480711582260D-01  8.1978378182347D-01
   178  1.7700000000000D+00 -2.7872581489302D-01  7.8369714164060D-01
   179  1.7800000000000D+00 -2.7180820289000D-01  7.4744786209100D-01
   180  1.7900000000000D+00 -2.6411541491158D-01  7.1113103711807D-01
   181  1.8000000000000D+00 -2.5571090693796D-01  6.7484194253018D-01
   182  1.8100000000000D+00 -2.4666018488949D-01  6.3867575154094D-01
   183  1.8200000000000D+00 -2.3703052410528D-01  6.0272724713677D-01
   184  1.8300000000000D+00 -2.2689067961642D-01  5.6709053182323D-01
   185  1.8400000000000D+00 -2.1631058884583D-01  5.3185873562855D-01
   186  1.8500000000000D+00 -2.0536106765172D-01  4.9712372309154D-01
   187  1.8600000000000D+00 -1.9411350097888D-01  4.6297580000272D-01
   188  1.8700000000000D+00 -1.8263952946482D-01  4.2950342071584D-01
   189  1.8800000000000D+00 -1.7101073304176D-01  3.9679289678732D-01
   190  1.8900000000000D+00 -1.5929831304514D-01  3.6492810770124D-01
   191  1.9000000000000D+00 -1.4757277394153D-01  3.3399021457575D-01
   192  1.9100000000000D+00 -1.3590360596874D-01  3.0405737738850D-01
   193  1.9200000000000D+00 -1.2435897016771D-01  2.7520447683183D-01
   194  1.9300000000000D+00 -1.1300538671313D-01  2.4750284114965D-01
   195  1.9400000000000D+00 -1.0190742790103D-01  2.2101997731589D-01
   196  1.9500000000000D+00 -9.1127418274191D-02  1.9581931522293D-01
   197  1.9600000000000D+00 -8.0725141335755D-02  1.7195995627598D-01
   198  1.9700000000000D+00 -7.0757545941171D-02  1.4949638440842D-01
   199  1.9800000000000D+00 -6.1278498996068D-02  1.2847836959536D-01
   200  1.9900000000000D+00 -5.2338494872896D-02  1.0895062020032D-01
   201  2.0000000000000D+00 -4.3984365900310D-02  9.0952364965004D-02
   202  2.0100000000000D+00 -3.6259102479959D-02  7.4517462508572D-02
   203  2.0200000000000D+00 -2.9201700634427D-02  5.9674598846721D-02
   204  2.0300000000000D+00 -2.2847013119016D-02  4.6447425828667D-02
   205  2.0400000000000D+00 -1.7230288098228D-02  3.4863901328379D-02
   206  2.0500000000000D+00 -1.2367661025607D-02  2.4918253340350D-02
   207  2.0600000000000D+00 -8.2676760795062D-03  1.6593898898736D-02
   208  2.0700000000000D+00 -4.9686038279333D-03  9.9372380691345D-03
   209  2.0800000000000D+00 -2.5300338074735D-03  5.0411437077703D-03
   210  2.0900000000000D+00 -9.7341736234644D-04  1.9275641295213D-03
   211  2.1000000000000D+00 -1.4436116525761D-04  2.7602555380888D-04
   212  2.1100000000000D+00  1.4976228086891D-04 -3.0542684605939D-04
   213  2.1200000000000D+00  1.3022863325294D-04 -2.6205381222749D-04
   214  2.1300000000000D+00  4.3744917175562D-06 -8.7681781986793D-06
   215  2.1400000000000D+00 -4.5104686598585D-05  9.0596169030519D-05
   216  2.1500000000000D+00 -2.7336219003717D-05  5.4840974160382D-05
   217  2.1600000000000D+00  4.6724737578167D-06 -9.4509906979641D-06
   218  2.1700000000000D+00  8.4485863795600D-06 -1.7078819253969D-05
   219  2.1800000000000D+00  1.7493833106894D-06 -3.5348218963069D-06
   220  2.1900000000000D+00 -1.4712731906107D-07  3.1682075378066D-07
   221  2.2000000000000D+00 -1.3096973358052D-07  2.8202736228892D-07
   222  2.2100000000000D+00  0.0000000000000D+00  0.0000000000000D+00
   223  2.2200000000000D+00  0.0000000000000D+00  0.0000000000000D+00
   224  2.2300000000000D+00  0.0000000000000D+00  0.0000000000000D+00
   225  2.2400000000000D+00  0.0000000000000D+00  0.0000000000000D+00
   226  2.2500000000000D+00  0.0000000000000D+00  0.0000000000000D+00
   227  2.2600000000000D+00  0.0000000000000D+00  0.0000000000000D+00
   228  2.2700000000000D+00  0.0000000000000D+00  0.0000000000000D+00
   229  2.2800000000000D+00  0.0000000000000D+00  0.0000000000000D+00
   230  2.2900000000000D+00  0.0000000000000D+00  0.0000000000000D+00
   231  2.3000000000000D+00  0.0000000000000D+00  0.0000000000000D+00
   232  2.3100000000000D+00  0.0000000000000D+00  0.0000000000000D+00
   233  2.3200000000000D+00  0.0000000000000D+00  0.0000000000000D+00
   234  2.3300000000000D+00  0.0000000000000D+00  0.0000000000000D+00
   235  2.3400000000000D+00  0.0000000000000D+00  0.0000000000000D+00
   236  2.3500000000000D+00  0.0000000000000D+00  0.0000000000000D+00
   237  2.3600000000000D+00  0.0000000000000D+00  0.0000000000000D+00
   238  2.3700000000000D+00  0.0000000000000D+00  0.0000000000000D+00
   239  2.3800000000000D+00  0.0000000000000D+00  0.0000000000000D+00
   240  2.3900000000000D+00  0.0000000000000D+00  0.0000000000000D+00
   241  2.4000000000000D+00  0.0000000000000D+00  0.0000000000000D+00
   242  2.4100000000000D+00  0.0000000000000D+00  0.0000000000000D+00
   243  2.4200000000000D+00  0.0000000000000D+00  0.0000000000000D+00
   244  2.4300000000000D+00  0.0000000000000D+00  0.0000000000000D+00
   245  2.4400000000000D+00  0.0000000000000D+00  0.0000000000000D+00
   246  2.4500000000000D+00  0.0000000000000D+00  0.0000000000000D+00
   247  2.4600000000000D+00  0.0000000000000D+00  0.0000000000000D+00
   248  2.4700000000000D+00  0.0000000000000D+00  0.0000000000000D+00
   249  2.4800000000000D+00  0.0000000000000D+00  0.0000000000000D+00
   250  2.4900000000000D+00  0.0000000000000D+00  0.0000000000000D+00
   251  2.5000000000000D+00  0.0000000000000D+00  0.0000000000000D+00
   252  2.5100000000000D+00  0.0000000000000D+00  0.0000000000000D+00
   253  2.5200000000000D+00  0.0000000000000D+00  0.0000000000000D+00
   254  2.5300000000000D+00  0.0000000000000D+00  0.0000000000000D+00
   255  2.5400000000000D+00  0.0000000000000D+00  0.0000000000000D+00
   256  2.5500000000000D+00  0.0000000000000D+00  0.0000000000000D+00
   257  2.5600000000000D+00  0.0000000000000D+00  0.0000000000000D+00
   258  2.5700000000000D+00  0.0000000000000D+00  0.0000000000000D+00
   259  2.5800000000000D+00  0.0000000000000D+00  0.0000000000000D+00
   260  2.5900000000000D+00  0.0000000000000D+00  0.0000000000000D+00
   261  2.6000000000000D+00  0.0000000000000D+00  0.0000000000000D+00
   262  2.6100000000000D+00  0.0000000000000D+00  0.0000000000000D+00
   263  2.6200000000000D+00  0.0000000000000D+00  0.0000000000000D+00
   264  2.6300000000000D+00  0.0000000000000D+00  0.0000000000000D+00
   265  2.6400000000000D+00  0.0000000000000D+00  0.0000000000000D+00
   266  2.6500000000000D+00  0.0000000000000D+00  0.0000000000000D+00
   267  2.6600000000000D+00  0.0000000000000D+00  0.0000000000000D+00
   268  2.6700000000000D+00  0.0000000000000D+00  0.0000000000000D+00
   269  2.6800000000000D+00  0.0000000000000D+00  0.0000000000000D+00
   270  2.6900000000000D+00  0.0000000000000D+00  0.0000000000000D+00
   271  2.7000000000000D+00  0.0000000000000D+00  0.0000000000000D+00
   272  2.7100000000000D+00  0.0000000000000D+00  0.0000000000000D+00
   273  2.7200000000000D+00  0.0000000000000D+00  0.0000000000000D+00
   274  2.7300000000000D+00  0.0000000000000D+00  0.0000000000000D+00
   275  2.7400000000000D+00  0.0000000000000D+00  0.0000000000000D+00
   276  2.7500000000000D+00  0.0000000000000D+00  0.0000000000000D+00
   277  2.7600000000000D+00  0.0000000000000D+00  0.0000000000000D+00
   278  2.7700000000000D+00  0.0000000000000D+00  0.0000000000000D+00
   279  2.7800000000000D+00  0.0000000000000D+00  0.0000000000000D+00
   280  2.7900000000000D+00  0.0000000000000D+00  0.0000000000000D+00
   281  2.8000000000000D+00  0.0000000000000D+00  0.0000000000000D+00
   282  2.8100000000000D+00  0.0000000000000D+00  0.0000000000000D+00
   283  2.8200000000000D+00  0.0000000000000D+00  0.0000000000000D+00
   284  2.8300000000000D+00  0.0000000000000D+00  0.0000000000000D+00
   285  2.8400000000000D+00  0.0000000000000D+00  0.0000000000000D+00
   286  2.8500000000000D+00  0.0000000000000D+00  0.0000000000000D+00
   287  2.8600000000000D+00  0.0000000000000D+00  0.0000000000000D+00
   288  2.8700000000000D+00  0.0000000000000D+00  0.0000000000000D+00
   289  2.8800000000000D+00  0.0000000000000D+00  0.0000000000000D+00
   290  2.8900000000000D+00  0.0000000000000D+00  0.0000000000000D+00
   291  2.9000000000000D+00  0.0000000000000D+00  0.0000000000000D+00
   292  2.9100000000000D+00  0.0000000000000D+00  0.0000000000000D+00
   293  2.9200000000000D+00  0.0000000000000D+00  0.0000000000000D+00
   294  2.9300000000000D+00  0.0000000000000D+00  0.0000000000000D+00
   295  2.9400000000000D+00  0.0000000000000D+00  0.0000000000000D+00
   296  2.9500000000000D+00  0.0000000000000D+00  0.0000000000000D+00
   297  2.9600000000000D+00  0.0000000000000D+00  0.0000000000000D+00
   298  2.9700000000000D+00  0.0000000000000D+00  0.0000000000000D+00
   299  2.9800000000000D+00  0.0000000000000D+00  0.0000000000000D+00
   300  2.9900000000000D+00  0.0000000000000D+00  0.0000000000000D+00
   301  3.0000000000000D+00  0.0000000000000D+00  0.0000000000000D+00
   302  3.0100000000000D+00  0.0000000000000D+00  0.0000000000000D+00
   303  3.0200000000000D+00  0.0000000000000D+00  0.0000000000000D+00
   304  3.0300000000000D+00  0.0000000000000D+00  0.0000000000000D+00
   305  3.0400000000000D+00  0.0000000000000D+00  0.0000000000000D+00
   306  3.0500000000000D+00  0.0000000000000D+00  0.0000000000000D+00
   307  3.0600000000000D+00  0.0000000000000D+00  0.0000000000000D+00
   308  3.0700000000000D+00  0.0000000000000D+00  0.0000000000000D+00
   309  3.0800000000000D+00  0.0000000000000D+00  0.0000000000000D+00
   310  3.0900000000000D+00  0.0000000000000D+00  0.0000000000000D+00
   311  3.1000000000000D+00  0.0000000000000D+00  0.0000000000000D+00
   312  3.1100000000000D+00  0.0000000000000D+00  0.0000000000000D+00
   313  3.1200000000000D+00  0.0000000000000D+00  0.0000000000000D+00
   314  3.1300000000000D+00  0.0000000000000D+00  0.0000000000000D+00
   315  3.1400000000000D+00  0.0000000000000D+00  0.0000000000000D+00
   316  3.1500000000000D+00  0.0000000000000D+00  0.0000000000000D+00
   317  3.1600000000000D+00  0.0000000000000D+00  0.0000000000000D+00
   318  3.1700000000000D+00  0.0000000000000D+00  0.0000000000000D+00
   319  3.1800000000000D+00  0.0000000000000D+00  0.0000000000000D+00
   320  3.1900000000000D+00  0.0000000000000D+00  0.0000000000000D+00
   321  3.2000000000000D+00  0.0000000000000D+00  0.0000000000000D+00
   322  3.2100000000000D+00  0.0000000000000D+00  0.0000000000000D+00
   323  3.2200000000000D+00  0.0000000000000D+00  0.0000000000000D+00
   324  3.2300000000000D+00  0.0000000000000D+00  0.0000000000000D+00
   325  3.2400000000000D+00  0.0000000000000D+00  0.0000000000000D+00
   326  3.2500000000000D+00  0.0000000000000D+00  0.0000000000000D+00
   327  3.2600000000000D+00  0.0000000000000D+00  0.0000000000000D+00
   328  3.2700000000000D+00  0.0000000000000D+00  0.0000000000000D+00
   329  3.2800000000000D+00  0.0000000000000D+00  0.0000000000000D+00
   330  3.2900000000000D+00  0.0000000000000D+00  0.0000000000000D+00
   331  3.3000000000000D+00  0.0000000000000D+00  0.0000000000000D+00
   332  3.3100000000000D+00  0.0000000000000D+00  0.0000000000000D+00
   333  3.3200000000000D+00  0.0000000000000D+00  0.0000000000000D+00
   334  3.3300000000000D+00  0.0000000000000D+00  0.0000000000000D+00
   335  3.3400000000000D+00  0.0000000000000D+00  0.0000000000000D+00
   336  3.3500000000000D+00  0.0000000000000D+00  0.0000000000000D+00
   337  3.3600000000000D+00  0.0000000000000D+00  0.0000000000000D+00
   338  3.3700000000000D+00  0.0000000000000D+00  0.0000000000000D+00
   339  3.3800000000000D+00  0.0000000000000D+00  0.0000000000000D+00
   340  3.3900000000000D+00  0.0000000000000D+00  0.0000000000000D+00
   341  3.4000000000000D+00  0.0000000000000D+00  0.0000000000000D+00
   342  3.4100000000000D+00  0.0000000000000D+00  0.0000000000000D+00
   343  3.4200000000000D+00  0.0000000000000D+00  0.0000000000000D+00
   344  3.4300000000000D+00  0.0000000000000D+00  0.0000000000000D+00
   345  3.4400000000000D+00  0.0000000000000D+00  0.0000000000000D+00
   346  3.4500000000000D+00  0.0000000000000D+00  0.0000000000000D+00
   347  3.4600000000000D+00  0.0000000000000D+00  0.0000000000000D+00
   348  3.4700000000000D+00  0.0000000000000D+00  0.0000000000000D+00
   349  3.4800000000000D+00  0.0000000000000D+00  0.0000000000000D+00
   350  3.4900000000000D+00  0.0000000000000D+00  0.0000000000000D+00
   351  3.5000000000000D+00  0.0000000000000D+00  0.0000000000000D+00
   352  3.5100000000000D+00  0.0000000000000D+00  0.0000000000000D+00
   353  3.5200000000000D+00  0.0000000000000D+00  0.0000000000000D+00
   354  3.5300000000000D+00  0.0000000000000D+00  0.0000000000000D+00
   355  3.5400000000000D+00  0.0000000000000D+00  0.0000000000000D+00
   356  3.5500000000000D+00  0.0000000000000D+00  0.0000000000000D+00
   357  3.5600000000000D+00  0.0000000000000D+00  0.0000000000000D+00
   358  3.5700000000000D+00  0.0000000000000D+00  0.0000000000000D+00
   359  3.5800000000000D+00  0.0000000000000D+00  0.0000000000000D+00
   360  3.5900000000000D+00  0.0000000000000D+00  0.0000000000000D+00
   361  3.6000000000000D+00  0.0000000000000D+00  0.0000000000000D+00
   362  3.6100000000000D+00  0.0000000000000D+00  0.0000000000000D+00
   363  3.6200000000000D+00  0.0000000000000D+00  0.0000000000000D+00
   364  3.6300000000000D+00  0.0000000000000D+00  0.0000000000000D+00
   365  3.6400000000000D+00  0.0000000000000D+00  0.0000000000000D+00
   366  3.6500000000000D+00  0.0000000000000D+00  0.0000000000000D+00
   367  3.6600000000000D+00  0.0000000000000D+00  0.0000000000000D+00
   368  3.6700000000000D+00  0.0000000000000D+00  0.0000000000000D+00
   369  3.6800000000000D+00  0.0000000000000D+00  0.0000000000000D+00
   370  3.6900000000000D+00  0.0000000000000D+00  0.0000000000000D+00
   371  3.7000000000000D+00  0.0000000000000D+00  0.0000000000000D+00
   372  3.7100000000000D+00  0.0000000000000D+00  0.0000000000000D+00
   373  3.7200000000000D+00  0.0000000000000D+00  0.0000000000000D+00
   374  3.7300000000000D+00  0.0000000000000D+00  0.0000000000000D+00
   375  3.7400000000000D+00  0.0000000000000D+00  0.0000000000000D+00
   376  3.7500000000000D+00  0.0000000000000D+00  0.0000000000000D+00
   377  3.7600000000000D+00  0.0000000000000D+00  0.0000000000000D+00
   378  3.7700000000000D+00  0.0000000000000D+00  0.0000000000000D+00
   379  3.7800000000000D+00  0.0000000000000D+00  0.0000000000000D+00
   380  3.7900000000000D+00  0.0000000000000D+00  0.0000000000000D+00
   381  3.8000000000000D+00  0.0000000000000D+00  0.0000000000000D+00
   382  3.8100000000000D+00  0.0000000000000D+00  0.0000000000000D+00
   383  3.8200000000000D+00  0.0000000000000D+00  0.0000000000000D+00
   384  3.8300000000000D+00  0.0000000000000D+00  0.0000000000000D+00
   385  3.8400000000000D+00  0.0000000000000D+00  0.0000000000000D+00
   386  3.8500000000000D+00  0.0000000000000D+00  0.0000000000000D+00
   387  3.8600000000000D+00  0.0000000000000D+00  0.0000000000000D+00
   388  3.8700000000000D+00  0.0000000000000D+00  0.0000000000000D+00
   389  3.8800000000000D+00  0.0000000000000D+00  0.0000000000000D+00
   390  3.8900000000000D+00  0.0000000000000D+00  0.0000000000000D+00
   391  3.9000000000000D+00  0.0000000000000D+00  0.0000000000000D+00
   392  3.9100000000000D+00  0.0000000000000D+00  0.0000000000000D+00
   393  3.9200000000000D+00  0.0000000000000D+00  0.0000000000000D+00
   394  3.9300000000000D+00  0.0000000000000D+00  0.0000000000000D+00
   395  3.9400000000000D+00  0.0000000000000D+00  0.0000000000000D+00
   396  3.9500000000000D+00  0.0000000000000D+00  0.0000000000000D+00
   397  3.9600000000000D+00  0.0000000000000D+00  0.0000000000000D+00
   398  3.9700000000000D+00  0.0000000000000D+00  0.0000000000000D+00
   399  3.9800000000000D+00  0.0000000000000D+00  0.0000000000000D+00
   400  3.9900000000000D+00  0.0000000000000D+00  0.0000000000000D+00
   401  4.0000000000000D+00  0.0000000000000D+00  0.0000000000000D+00
   402  4.0100000000000D+00  0.0000000000000D+00  0.0000000000000D+00
   403  4.0200000000000D+00  0.0000000000000D+00  0.0000000000000D+00
   404  4.0300000000000D+00  0.0000000000000D+00  0.0000000000000D+00
   405  4.0400000000000D+00  0.0000000000000D+00  0.0000000000000D+00
   406  4.0500000000000D+00  0.0000000000000D+00  0.0000000000000D+00
   407  4.0600000000000D+00  0.0000000000000D+00  0.0000000000000D+00
   408  4.0700000000000D+00  0.0000000000000D+00  0.0000000000000D+00
   409  4.0800000000000D+00  0.0000000000000D+00  0.0000000000000D+00
   410  4.0900000000000D+00  0.0000000000000D+00  0.0000000000000D+00
   411  4.1000000000000D+00  0.0000000000000D+00  0.0000000000000D+00
   412  4.1100000000000D+00  0.0000000000000D+00  0.0000000000000D+00
   413  4.1200000000000D+00  0.0000000000000D+00  0.0000000000000D+00
   414  4.1300000000000D+00  0.0000000000000D+00  0.0000000000000D+00
   415  4.1400000000000D+00  0.0000000000000D+00  0.0000000000000D+00
   416  4.1500000000000D+00  0.0000000000000D+00  0.0000000000000D+00
   417  4.1600000000000D+00  0.0000000000000D+00  0.0000000000000D+00
   418  4.1700000000000D+00  0.0000000000000D+00  0.0000000000000D+00
   419  4.1800000000000D+00  0.0000000000000D+00  0.0000000000000D+00
   420  4.1900000000000D+00  0.0000000000000D+00  0.0000000000000D+00
   421  4.2000000000000D+00  0.0000000000000D+00  0.0000000000000D+00
   422  4.2100000000000D+00  0.0000000000000D+00  0.0000000000000D+00