Tl    ONCVPSP-3.3.0  r_core=   1.40325   1.50736   1.40325
     81.0000     21.0000      220117    zatom,zion,pspd
     8      11   2     4   600     0    pspcod,pspxc,lmax,lloc,mmax,r2well
  5.99000000  0.00000000  0.00000000    rchrg fchrg qchrg
     2     2     2     0     0    nproj
     1     1           extension_switch
   0                         1.6512813706094D+01  1.9633561041710D+00
     1  0.0000000000000D+00 -6.0858851291812D-10  1.9944924600779D-09
     2  1.0000000000000D-02  8.0257791662839D-02 -2.8612325953836D-02
     3  2.0000000000000D-02  1.6031003275744D-01 -5.6978002509373D-02
     4  3.0000000000000D-02  2.3995210087626D-01 -8.4852687528699D-02
     5  4.0000000000000D-02  3.1898121995433D-01 -1.1199662068054D-01
     6  5.0000000000000D-02  3.9719735865176D-01 -1.3817683307647D-01
     7  6.0000000000000D-02  4.7440409943078D-01 -1.6316926082972D-01
     8  7.0000000000000D-02  5.5040946928580D-01 -1.8676073289231D-01
     9  8.0000000000000D-02  6.2502672369414D-01 -2.0875080552073D-01
    10  9.0000000000000D-02  6.9807507609704D-01 -2.2895341815587D-01
    11  1.0000000000000D-01  7.6938036608546D-01 -2.4719834834134D-01
    12  1.1000000000000D-01  8.3877566043754D-01 -2.6333244650335D-01
    13  1.2000000000000D-01  9.0610178222055D-01 -2.7722063492432D-01
    14  1.3000000000000D-01  9.7120776431087D-01 -2.8874665900771D-01
    15  1.4000000000000D-01  1.0339512248841D+00 -2.9781358289508D-01
    16  1.5000000000000D-01  1.0941986636630D+00 -3.0434402559525D-01
    17  1.6000000000000D-01  1.1518256789658D+00 -3.0828013795603D-01
    18  1.7000000000000D-01  1.2067171068447D+00 -3.0958332498573D-01
    19  1.8000000000000D-01  1.2587670848366D+00 -3.0823372214699D-01
    20  1.9000000000000D-01  1.3078790440237D+00 -3.0422943823468D-01
    21  2.0000000000000D-01  1.3539656342245D+00 -2.9758558124712D-01
    22  2.1000000000000D-01  1.3969485881681D+00 -2.8833308720410D-01
    23  2.2000000000000D-01  1.4367585314364D+00 -2.7651737509696D-01
    24  2.3000000000000D-01  1.4733347457735D+00 -2.6219685402080D-01
    25  2.4000000000000D-01  1.5066248940421D+00 -2.4544131098702D-01
    26  2.5000000000000D-01  1.5365847156419D+00 -2.2633020990356D-01
    27  2.6000000000000D-01  1.5631777015785D+00 -2.0495093370132D-01
    28  2.7000000000000D-01  1.5863747585884D+00 -1.8139700255168D-01
    29  2.8000000000000D-01  1.6061538717598D+00 -1.5576630153785D-01
    30  2.9000000000000D-01  1.6224997749598D+00 -1.2815935100030D-01
    31  3.0000000000000D-01  1.6354036380660D+00 -9.8677652068499D-02
    32  3.1000000000000D-01  1.6448627795206D+00 -6.7422138622306D-02
    33  3.2000000000000D-01  1.6508804120780D+00 -3.4491765109744D-02
    34  3.3000000000000D-01  1.6534654288077D+00  1.7742694206784D-05
    35  3.4000000000000D-01  1.6526322354641D+00  3.6014949739497D-02
    36  3.5000000000000D-01  1.6484006342449D+00  7.3413565607170D-02
    37  3.6000000000000D-01  1.6407957627553D+00  1.1213307301320D-01
    38  3.7000000000000D-01  1.6298480906925D+00  1.5209911770607D-01
    39  3.8000000000000D-01  1.6155934753812D+00  1.9324365089996D-01
    40  3.9000000000000D-01  1.5980732758551D+00  2.3550481995560D-01
    41  4.0000000000000D-01  1.5773345237065D+00  2.7882660774483D-01
    42  4.1000000000000D-01  1.5534301474498D+00  3.2315822593649D-01
    43  4.2000000000000D-01  1.5264192456843D+00  3.6845327224231D-01
    44  4.3000000000000D-01  1.4963674029282D+00  4.1466866638166D-01
    45  4.4000000000000D-01  1.4633470406464D+00  4.6176338408377D-01
    46  4.5000000000000D-01  1.4274377947492D+00  5.0969701276554D-01
    47  4.6000000000000D-01  1.3887269097044D+00  5.5842815652547D-01
    48  4.7000000000000D-01  1.3473096384210D+00  6.0791272170657D-01
    49  4.8000000000000D-01  1.3032896362378D+00  6.5810211743323D-01
    50  4.9000000000000D-01  1.2567793367099D+00  7.0894140815835D-01
    51  5.0000000000000D-01  1.2079002964484D+00  7.6036745730945D-01
    52  5.1000000000000D-01  1.1567834960411D+00  8.1230710254965D-01
    53  5.2000000000000D-01  1.1035695840828D+00  8.6467540393422D-01
    54  5.3000000000000D-01  1.0484090515735D+00  9.1737400631324D-01
    55  5.4000000000000D-01  9.9146232441274D-01  9.7028965669252D-01
    56  5.5000000000000D-01  9.3289976241953D-01  1.0232929159094D+00
    57  5.6000000000000D-01  8.7290155424414D-01  1.0762371019074D+00
    58  5.7000000000000D-01  8.1165749869643D-01  1.1289574991351D+00
    59  5.8000000000000D-01  7.4936666439119D-01  1.1812708651507D+00
    60  5.9000000000000D-01  6.8623692117433D-01  1.2329752614642D+00
    61  6.0000000000000D-01  6.2248433854993D-01  1.2838502309919D+00
    62  6.1000000000000D-01  5.5833244822159D-01  1.3336573393599D+00
    63  6.2000000000000D-01  4.9401136990267D-01  1.3821410916692D+00
    64  6.3000000000000D-01  4.2975680167862D-01  1.4290302303791D+00
    65  6.4000000000000D-01  3.6580887840727D-01  1.4740394137194D+00
    66  6.5000000000000D-01  3.0241090388980D-01  1.5168712675950D+00
    67  6.6000000000000D-01  2.3980796477849D-01  1.5572187974520D+00
    68  6.7000000000000D-01  1.7824543640157D-01  1.5947681400712D+00
    69  6.8000000000000D-01  1.1796739282376D-01  1.6292016288798D+00
    70  6.9000000000000D-01  5.9214935493318D-02  1.6602011402405D+00
    71  7.0000000000000D-01  2.2244567127112D-03  1.6874516823899D+00
    72  7.1000000000000D-01 -5.2774144105868D-02  1.7106451833086D+00
    73  7.2000000000000D-01 -1.0555927193920D-01  1.7294844290054D+00
    74  7.3000000000000D-01 -1.5591945467298D-01  1.7436870994878D+00
    75  7.4000000000000D-01 -2.0365514690814D-01  1.7529898462116D+00
    76  7.5000000000000D-01 -2.4858049660311D-01  1.7571523520986D+00
    77  7.6000000000000D-01 -2.9052505169582D-01  1.7559613133536D+00
    78  7.7000000000000D-01 -3.2933538376812D-01  1.7492342813651D+00
    79  7.8000000000000D-01 -3.6487660606787D-01  1.7368233029493D+00
    80  7.9000000000000D-01 -3.9703376379761D-01  1.7186182981404D+00
    81  8.0000000000000D-01 -4.2571307551297D-01  1.6945501166407D+00
    82  8.1000000000000D-01 -4.5084300574522D-01  1.6645932169155D+00
    83  8.2000000000000D-01 -4.7237515055906D-01  1.6287679157287D+00
    84  8.3000000000000D-01 -4.9028491966465D-01  1.5871421606341D+00
    85  8.4000000000000D-01 -5.0457200090087D-01  1.5398327834986D+00
    86  8.5000000000000D-01 -5.1526059536882D-01  1.4870061994871D+00
    87  8.6000000000000D-01 -5.2239941419128D-01  1.4288785229858D+00
    88  8.7000000000000D-01 -5.2606143076933D-01  1.3657150796035D+00
    89  8.8000000000000D-01 -5.2634338546418D-01  1.2978293015509D+00
    90  8.9000000000000D-01 -5.2336504280772D-01  1.2255810022501D+00
    91  9.0000000000000D-01 -5.1726820459510D-01  1.1493740348365D+00
    92  9.1000000000000D-01 -5.0821548549009D-01  1.0696533481656D+00
    93  9.2000000000000D-01 -4.9638886103069D-01  9.8690146287742D-01
    94  9.3000000000000D-01 -4.8198800110948D-01  9.0163439887630D-01
    95  9.4000000000000D-01 -4.6522840507228D-01  8.1439709410939D-01
    96  9.5000000000000D-01 -4.4633935748137D-01  7.2575836263427D-01
    97  9.6000000000000D-01 -4.2556172627959D-01  6.3630544753095D-01
    98  9.7000000000000D-01 -4.0314562752553D-01  5.4663823110022D-01
    99  9.8000000000000D-01 -3.7934798300508D-01  4.5736317088295D-01
   100  9.9000000000000D-01 -3.5442999883700D-01  3.6908703526336D-01
   101  1.0000000000000D+00 -3.2865459459569D-01  2.8241051653168D-01
   102  1.0100000000000D+00 -3.0228381355514D-01  1.9792180252452D-01
   103  1.0200000000000D+00 -2.7557624525945D-01  1.1619018987701D-01
   104  1.0300000000000D+00 -2.4878449181987D-01  3.7759822719260D-02
   105  1.0400000000000D+00 -2.2215270910187D-01 -3.6856359747321D-02
   106  1.0500000000000D+00 -1.9591425322592D-01 -1.0718238514439D-01
   107  1.0600000000000D+00 -1.7028946173569D-01 -1.7278464035925D-01
   108  1.0700000000000D+00 -1.4548359720724D-01 -2.3327681974248D-01
   109  1.0800000000000D+00 -1.2168497903758D-01 -2.8832435968057D-01
   110  1.0900000000000D+00 -9.9063326877822D-02 -3.3764829626038D-01
   111  1.1000000000000D+00 -7.7768336207937D-02 -3.8102849076376D-01
   112  1.1100000000000D+00 -5.7928503969119D-02 -4.1830617473348D-01
   113  1.1200000000000D+00 -3.9650218351890D-02 -4.4938577675380D-01
   114  1.1300000000000D+00 -2.3017123520339D-02 -4.7423600216950D-01
   115  1.1400000000000D+00 -8.0897660255680D-03 -4.9289014801113D-01
   116  1.1500000000000D+00  5.0944737068748D-03 -5.0544564464864D-01
   117  1.1600000000000D+00  1.6521165834146D-02 -5.1206282781447D-01
   118  1.1700000000000D+00  2.6198336474435D-02 -5.1296295555805D-01
   119  1.1800000000000D+00  3.4155703183029D-02 -5.0842549629450D-01
   120  1.1900000000000D+00  4.0443652379397D-02 -4.9878472150298D-01
   121  1.2000000000000D+00  4.5131975875888D-02 -4.8442565128721D-01
   122  1.2100000000000D+00  4.8308386352441D-02 -4.6577940847337D-01
   123  1.2200000000000D+00  5.0076834686603D-02 -4.4331804540407D-01
   124  1.2300000000000D+00  5.0555655026606D-02 -4.1754891584012D-01
   125  1.2400000000000D+00  4.9875566767080D-02 -3.8900867344172D-01
   126  1.2500000000000D+00  4.8177563898128D-02 -3.5825698191348D-01
   127  1.2600000000000D+00  4.5610723924282D-02 -3.2587002668535D-01
   128  1.2700000000000D+00  4.2329974650299D-02 -2.9243393679603D-01
   129  1.2800000000000D+00  3.8493846228908D-02 -2.5853818904250D-01
   130  1.2900000000000D+00  3.4262187488404D-02 -2.2476891548747D-01
   131  1.3000000000000D+00  2.9794022919605D-02 -1.9170265489766D-01
   132  1.3100000000000D+00  2.5245994930668D-02 -1.5990202454109D-01
   133  1.3200000000000D+00  2.0767867313393D-02 -1.2990168486147D-01
   134  1.3300000000000D+00  1.6497959695287D-02 -1.0219419789646D-01
   135  1.3400000000000D+00  1.2558307899110D-02 -7.7215188318033D-02
   136  1.3500000000000D+00  9.0525769555014D-03 -5.5337497262586D-02
   137  1.3600000000000D+00  6.0666984308894D-03 -3.6879100587895D-02
   138  1.3700000000000D+00  3.6582639066134D-03 -2.2044900839001D-02
   139  1.3800000000000D+00  1.8590263470047D-03 -1.0950107082664D-02
   140  1.3900000000000D+00  7.5473924521658D-04 -4.0519210153169D-03
   141  1.4000000000000D+00  2.6328086051148D-04 -9.5569190729464D-04
   142  1.4100000000000D+00  7.2408256031987D-05 -4.8228223264841D-05
   143  1.4200000000000D+00  3.1963111021831D-07  7.3188661219473D-07
   144  1.4300000000000D+00 -5.4012676325236D-06 -2.8543641190098D-05
   145  1.4400000000000D+00  1.2354633624663D-06  1.3786483905429D-06
   146  1.4500000000000D+00  1.2670018836341D-06  2.3207920509973D-06
   147  1.4600000000000D+00 -4.6994532651818D-07  1.2937445149175D-06
   148  1.4700000000000D+00 -1.6014690794860D-07  4.4087933648487D-07
   149  1.4800000000000D+00  0.0000000000000D+00  0.0000000000000D+00
   150  1.4900000000000D+00  0.0000000000000D+00  0.0000000000000D+00
   151  1.5000000000000D+00  0.0000000000000D+00  0.0000000000000D+00
   152  1.5100000000000D+00  0.0000000000000D+00  0.0000000000000D+00
   153  1.5200000000000D+00  0.0000000000000D+00  0.0000000000000D+00
   154  1.5300000000000D+00  0.0000000000000D+00  0.0000000000000D+00
   155  1.5400000000000D+00  0.0000000000000D+00  0.0000000000000D+00
   156  1.5500000000000D+00  0.0000000000000D+00  0.0000000000000D+00
   157  1.5600000000000D+00  0.0000000000000D+00  0.0000000000000D+00
   158  1.5700000000000D+00  0.0000000000000D+00  0.0000000000000D+00
   159  1.5800000000000D+00  0.0000000000000D+00  0.0000000000000D+00
   160  1.5900000000000D+00  0.0000000000000D+00  0.0000000000000D+00
   161  1.6000000000000D+00  0.0000000000000D+00  0.0000000000000D+00
   162  1.6100000000000D+00  0.0000000000000D+00  0.0000000000000D+00
   163  1.6200000000000D+00  0.0000000000000D+00  0.0000000000000D+00
   164  1.6300000000000D+00  0.0000000000000D+00  0.0000000000000D+00
   165  1.6400000000000D+00  0.0000000000000D+00  0.0000000000000D+00
   166  1.6500000000000D+00  0.0000000000000D+00  0.0000000000000D+00
   167  1.6600000000000D+00  0.0000000000000D+00  0.0000000000000D+00
   168  1.6700000000000D+00  0.0000000000000D+00  0.0000000000000D+00
   169  1.6800000000000D+00  0.0000000000000D+00  0.0000000000000D+00
   170  1.6900000000000D+00  0.0000000000000D+00  0.0000000000000D+00
   171  1.7000000000000D+00  0.0000000000000D+00  0.0000000000000D+00
   172  1.7100000000000D+00  0.0000000000000D+00  0.0000000000000D+00
   173  1.7200000000000D+00  0.0000000000000D+00  0.0000000000000D+00
   174  1.7300000000000D+00  0.0000000000000D+00  0.0000000000000D+00
   175  1.7400000000000D+00  0.0000000000000D+00  0.0000000000000D+00
   176  1.7500000000000D+00  0.0000000000000D+00  0.0000000000000D+00
   177  1.7600000000000D+00  0.0000000000000D+00  0.0000000000000D+00
   178  1.7700000000000D+00  0.0000000000000D+00  0.0000000000000D+00
   179  1.7800000000000D+00  0.0000000000000D+00  0.0000000000000D+00
   180  1.7900000000000D+00  0.0000000000000D+00  0.0000000000000D+00
   181  1.8000000000000D+00  0.0000000000000D+00  0.0000000000000D+00
   182  1.8100000000000D+00  0.0000000000000D+00  0.0000000000000D+00
   183  1.8200000000000D+00  0.0000000000000D+00  0.0000000000000D+00
   184  1.8300000000000D+00  0.0000000000000D+00  0.0000000000000D+00
   185  1.8400000000000D+00  0.0000000000000D+00  0.0000000000000D+00
   186  1.8500000000000D+00  0.0000000000000D+00  0.0000000000000D+00
   187  1.8600000000000D+00  0.0000000000000D+00  0.0000000000000D+00
   188  1.8700000000000D+00  0.0000000000000D+00  0.0000000000000D+00
   189  1.8800000000000D+00  0.0000000000000D+00  0.0000000000000D+00
   190  1.8900000000000D+00  0.0000000000000D+00  0.0000000000000D+00
   191  1.9000000000000D+00  0.0000000000000D+00  0.0000000000000D+00
   192  1.9100000000000D+00  0.0000000000000D+00  0.0000000000000D+00
   193  1.9200000000000D+00  0.0000000000000D+00  0.0000000000000D+00
   194  1.9300000000000D+00  0.0000000000000D+00  0.0000000000000D+00
   195  1.9400000000000D+00  0.0000000000000D+00  0.0000000000000D+00
   196  1.9500000000000D+00  0.0000000000000D+00  0.0000000000000D+00
   197  1.9600000000000D+00  0.0000000000000D+00  0.0000000000000D+00
   198  1.9700000000000D+00  0.0000000000000D+00  0.0000000000000D+00
   199  1.9800000000000D+00  0.0000000000000D+00  0.0000000000000D+00
   200  1.9900000000000D+00  0.0000000000000D+00  0.0000000000000D+00
   201  2.0000000000000D+00  0.0000000000000D+00  0.0000000000000D+00
   202  2.0100000000000D+00  0.0000000000000D+00  0.0000000000000D+00
   203  2.0200000000000D+00  0.0000000000000D+00  0.0000000000000D+00
   204  2.0300000000000D+00  0.0000000000000D+00  0.0000000000000D+00
   205  2.0400000000000D+00  0.0000000000000D+00  0.0000000000000D+00
   206  2.0500000000000D+00  0.0000000000000D+00  0.0000000000000D+00
   207  2.0600000000000D+00  0.0000000000000D+00  0.0000000000000D+00
   208  2.0700000000000D+00  0.0000000000000D+00  0.0000000000000D+00
   209  2.0800000000000D+00  0.0000000000000D+00  0.0000000000000D+00
   210  2.0900000000000D+00  0.0000000000000D+00  0.0000000000000D+00
   211  2.1000000000000D+00  0.0000000000000D+00  0.0000000000000D+00
   212  2.1100000000000D+00  0.0000000000000D+00  0.0000000000000D+00
   213  2.1200000000000D+00  0.0000000000000D+00  0.0000000000000D+00
   214  2.1300000000000D+00  0.0000000000000D+00  0.0000000000000D+00
   215  2.1400000000000D+00  0.0000000000000D+00  0.0000000000000D+00
   216  2.1500000000000D+00  0.0000000000000D+00  0.0000000000000D+00
   217  2.1600000000000D+00  0.0000000000000D+00  0.0000000000000D+00
   218  2.1700000000000D+00  0.0000000000000D+00  0.0000000000000D+00
   219  2.1800000000000D+00  0.0000000000000D+00  0.0000000000000D+00
   220  2.1900000000000D+00  0.0000000000000D+00  0.0000000000000D+00
   221  2.2000000000000D+00  0.0000000000000D+00  0.0000000000000D+00
   222  2.2100000000000D+00  0.0000000000000D+00  0.0000000000000D+00
   223  2.2200000000000D+00  0.0000000000000D+00  0.0000000000000D+00
   224  2.2300000000000D+00  0.0000000000000D+00  0.0000000000000D+00
   225  2.2400000000000D+00  0.0000000000000D+00  0.0000000000000D+00
   226  2.2500000000000D+00  0.0000000000000D+00  0.0000000000000D+00
   227  2.2600000000000D+00  0.0000000000000D+00  0.0000000000000D+00
   228  2.2700000000000D+00  0.0000000000000D+00  0.0000000000000D+00
   229  2.2800000000000D+00  0.0000000000000D+00  0.0000000000000D+00
   230  2.2900000000000D+00  0.0000000000000D+00  0.0000000000000D+00
   231  2.3000000000000D+00  0.0000000000000D+00  0.0000000000000D+00
   232  2.3100000000000D+00  0.0000000000000D+00  0.0000000000000D+00
   233  2.3200000000000D+00  0.0000000000000D+00  0.0000000000000D+00
   234  2.3300000000000D+00  0.0000000000000D+00  0.0000000000000D+00
   235  2.3400000000000D+00  0.0000000000000D+00  0.0000000000000D+00
   236  2.3500000000000D+00  0.0000000000000D+00  0.0000000000000D+00
   237  2.3600000000000D+00  0.0000000000000D+00  0.0000000000000D+00
   238  2.3700000000000D+00  0.0000000000000D+00  0.0000000000000D+00
   239  2.3800000000000D+00  0.0000000000000D+00  0.0000000000000D+00
   240  2.3900000000000D+00  0.0000000000000D+00  0.0000000000000D+00
   241  2.4000000000000D+00  0.0000000000000D+00  0.0000000000000D+00
   242  2.4100000000000D+00  0.0000000000000D+00  0.0000000000000D+00
   243  2.4200000000000D+00  0.0000000000000D+00  0.0000000000000D+00
   244  2.4300000000000D+00  0.0000000000000D+00  0.0000000000000D+00
   245  2.4400000000000D+00  0.0000000000000D+00  0.0000000000000D+00
   246  2.4500000000000D+00  0.0000000000000D+00  0.0000000000000D+00
   247  2.4600000000000D+00  0.0000000000000D+00  0.0000000000000D+00
   248  2.4700000000000D+00  0.0000000000000D+00  0.0000000000000D+00
   249  2.4800000000000D+00  0.0000000000000D+00  0.0000000000000D+00
   250  2.4900000000000D+00  0.0000000000000D+00  0.0000000000000D+00
   251  2.5000000000000D+00  0.0000000000000D+00  0.0000000000000D+00
   252  2.5100000000000D+00  0.0000000000000D+00  0.0000000000000D+00
   253  2.5200000000000D+00  0.0000000000000D+00  0.0000000000000D+00
   254  2.5300000000000D+00  0.0000000000000D+00  0.0000000000000D+00
   255  2.5400000000000D+00  0.0000000000000D+00  0.0000000000000D+00
   256  2.5500000000000D+00  0.0000000000000D+00  0.0000000000000D+00
   257  2.5600000000000D+00  0.0000000000000D+00  0.0000000000000D+00
   258  2.5700000000000D+00  0.0000000000000D+00  0.0000000000000D+00
   259  2.5800000000000D+00  0.0000000000000D+00  0.0000000000000D+00
   260  2.5900000000000D+00  0.0000000000000D+00  0.0000000000000D+00
   261  2.6000000000000D+00  0.0000000000000D+00  0.0000000000000D+00
   262  2.6100000000000D+00  0.0000000000000D+00  0.0000000000000D+00
   263  2.6200000000000D+00  0.0000000000000D+00  0.0000000000000D+00
   264  2.6300000000000D+00  0.0000000000000D+00  0.0000000000000D+00
   265  2.6400000000000D+00  0.0000000000000D+00  0.0000000000000D+00
   266  2.6500000000000D+00  0.0000000000000D+00  0.0000000000000D+00
   267  2.6600000000000D+00  0.0000000000000D+00  0.0000000000000D+00
   268  2.6700000000000D+00  0.0000000000000D+00  0.0000000000000D+00
   269  2.6800000000000D+00  0.0000000000000D+00  0.0000000000000D+00
   270  2.6900000000000D+00  0.0000000000000D+00  0.0000000000000D+00
   271  2.7000000000000D+00  0.0000000000000D+00  0.0000000000000D+00
   272  2.7100000000000D+00  0.0000000000000D+00  0.0000000000000D+00
   273  2.7200000000000D+00  0.0000000000000D+00  0.0000000000000D+00
   274  2.7300000000000D+00  0.0000000000000D+00  0.0000000000000D+00
   275  2.7400000000000D+00  0.0000000000000D+00  0.0000000000000D+00
   276  2.7500000000000D+00  0.0000000000000D+00  0.0000000000000D+00
   277  2.7600000000000D+00  0.0000000000000D+00  0.0000000000000D+00
   278  2.7700000000000D+00  0.0000000000000D+00  0.0000000000000D+00
   279  2.7800000000000D+00  0.0000000000000D+00  0.0000000000000D+00
   280  2.7900000000000D+00  0.0000000000000D+00  0.0000000000000D+00
   281  2.8000000000000D+00  0.0000000000000D+00  0.0000000000000D+00
   282  2.8100000000000D+00  0.0000000000000D+00  0.0000000000000D+00
   283  2.8200000000000D+00  0.0000000000000D+00  0.0000000000000D+00
   284  2.8300000000000D+00  0.0000000000000D+00  0.0000000000000D+00
   285  2.8400000000000D+00  0.0000000000000D+00  0.0000000000000D+00
   286  2.8500000000000D+00  0.0000000000000D+00  0.0000000000000D+00
   287  2.8600000000000D+00  0.0000000000000D+00  0.0000000000000D+00
   288  2.8700000000000D+00  0.0000000000000D+00  0.0000000000000D+00
   289  2.8800000000000D+00  0.0000000000000D+00  0.0000000000000D+00
   290  2.8900000000000D+00  0.0000000000000D+00  0.0000000000000D+00
   291  2.9000000000000D+00  0.0000000000000D+00  0.0000000000000D+00
   292  2.9100000000000D+00  0.0000000000000D+00  0.0000000000000D+00
   293  2.9200000000000D+00  0.0000000000000D+00  0.0000000000000D+00
   294  2.9300000000000D+00  0.0000000000000D+00  0.0000000000000D+00
   295  2.9400000000000D+00  0.0000000000000D+00  0.0000000000000D+00
   296  2.9500000000000D+00  0.0000000000000D+00  0.0000000000000D+00
   297  2.9600000000000D+00  0.0000000000000D+00  0.0000000000000D+00
   298  2.9700000000000D+00  0.0000000000000D+00  0.0000000000000D+00
   299  2.9800000000000D+00  0.0000000000000D+00  0.0000000000000D+00
   300  2.9900000000000D+00  0.0000000000000D+00  0.0000000000000D+00
   301  3.0000000000000D+00  0.0000000000000D+00  0.0000000000000D+00
   302  3.0100000000000D+00  0.0000000000000D+00  0.0000000000000D+00
   303  3.0200000000000D+00  0.0000000000000D+00  0.0000000000000D+00
   304  3.0300000000000D+00  0.0000000000000D+00  0.0000000000000D+00
   305  3.0400000000000D+00  0.0000000000000D+00  0.0000000000000D+00
   306  3.0500000000000D+00  0.0000000000000D+00  0.0000000000000D+00
   307  3.0600000000000D+00  0.0000000000000D+00  0.0000000000000D+00
   308  3.0700000000000D+00  0.0000000000000D+00  0.0000000000000D+00
   309  3.0800000000000D+00  0.0000000000000D+00  0.0000000000000D+00
   310  3.0900000000000D+00  0.0000000000000D+00  0.0000000000000D+00
   311  3.1000000000000D+00  0.0000000000000D+00  0.0000000000000D+00
   312  3.1100000000000D+00  0.0000000000000D+00  0.0000000000000D+00
   313  3.1200000000000D+00  0.0000000000000D+00  0.0000000000000D+00
   314  3.1300000000000D+00  0.0000000000000D+00  0.0000000000000D+00
   315  3.1400000000000D+00  0.0000000000000D+00  0.0000000000000D+00
   316  3.1500000000000D+00  0.0000000000000D+00  0.0000000000000D+00
   317  3.1600000000000D+00  0.0000000000000D+00  0.0000000000000D+00
   318  3.1700000000000D+00  0.0000000000000D+00  0.0000000000000D+00
   319  3.1800000000000D+00  0.0000000000000D+00  0.0000000000000D+00
   320  3.1900000000000D+00  0.0000000000000D+00  0.0000000000000D+00
   321  3.2000000000000D+00  0.0000000000000D+00  0.0000000000000D+00
   322  3.2100000000000D+00  0.0000000000000D+00  0.0000000000000D+00
   323  3.2200000000000D+00  0.0000000000000D+00  0.0000000000000D+00
   324  3.2300000000000D+00  0.0000000000000D+00  0.0000000000000D+00
   325  3.2400000000000D+00  0.0000000000000D+00  0.0000000000000D+00
   326  3.2500000000000D+00  0.0000000000000D+00  0.0000000000000D+00
   327  3.2600000000000D+00  0.0000000000000D+00  0.0000000000000D+00
   328  3.2700000000000D+00  0.0000000000000D+00  0.0000000000000D+00
   329  3.2800000000000D+00  0.0000000000000D+00  0.0000000000000D+00
   330  3.2900000000000D+00  0.0000000000000D+00  0.0000000000000D+00
   331  3.3000000000000D+00  0.0000000000000D+00  0.0000000000000D+00
   332  3.3100000000000D+00  0.0000000000000D+00  0.0000000000000D+00
   333  3.3200000000000D+00  0.0000000000000D+00  0.0000000000000D+00
   334  3.3300000000000D+00  0.0000000000000D+00  0.0000000000000D+00
   335  3.3400000000000D+00  0.0000000000000D+00  0.0000000000000D+00
   336  3.3500000000000D+00  0.0000000000000D+00  0.0000000000000D+00
   337  3.3600000000000D+00  0.0000000000000D+00  0.0000000000000D+00
   338  3.3700000000000D+00  0.0000000000000D+00  0.0000000000000D+00
   339  3.3800000000000D+00  0.0000000000000D+00  0.0000000000000D+00
   340  3.3900000000000D+00  0.0000000000000D+00  0.0000000000000D+00
   341  3.4000000000000D+00  0.0000000000000D+00  0.0000000000000D+00
   342  3.4100000000000D+00  0.0000000000000D+00  0.0000000000000D+00
   343  3.4200000000000D+00  0.0000000000000D+00  0.0000000000000D+00
   344  3.4300000000000D+00  0.0000000000000D+00  0.0000000000000D+00
   345  3.4400000000000D+00  0.0000000000000D+00  0.0000000000000D+00
   346  3.4500000000000D+00  0.0000000000000D+00  0.0000000000000D+00
   347  3.4600000000000D+00  0.0000000000000D+00  0.0000000000000D+00
   348  3.4700000000000D+00  0.0000000000000D+00  0.0000000000000D+00
   349  3.4800000000000D+00  0.0000000000000D+00  0.0000000000000D+00
   350  3.4900000000000D+00  0.0000000000000D+00  0.0000000000000D+00
   351  3.5000000000000D+00  0.0000000000000D+00  0.0000000000000D+00
   352  3.5100000000000D+00  0.0000000000000D+00  0.0000000000000D+00
   353  3.5200000000000D+00  0.0000000000000D+00  0.0000000000000D+00
   354  3.5300000000000D+00  0.0000000000000D+00  0.0000000000000D+00
   355  3.5400000000000D+00  0.0000000000000D+00  0.0000000000000D+00
   356  3.5500000000000D+00  0.0000000000000D+00  0.0000000000000D+00
   357  3.5600000000000D+00  0.0000000000000D+00  0.0000000000000D+00
   358  3.5700000000000D+00  0.0000000000000D+00  0.0000000000000D+00
   359  3.5800000000000D+00  0.0000000000000D+00  0.0000000000000D+00
   360  3.5900000000000D+00  0.0000000000000D+00  0.0000000000000D+00
   361  3.6000000000000D+00  0.0000000000000D+00  0.0000000000000D+00
   362  3.6100000000000D+00  0.0000000000000D+00  0.0000000000000D+00
   363  3.6200000000000D+00  0.0000000000000D+00  0.0000000000000D+00
   364  3.6300000000000D+00  0.0000000000000D+00  0.0000000000000D+00
   365  3.6400000000000D+00  0.0000000000000D+00  0.0000000000000D+00
   366  3.6500000000000D+00  0.0000000000000D+00  0.0000000000000D+00
   367  3.6600000000000D+00  0.0000000000000D+00  0.0000000000000D+00
   368  3.6700000000000D+00  0.0000000000000D+00  0.0000000000000D+00
   369  3.6800000000000D+00  0.0000000000000D+00  0.0000000000000D+00
   370  3.6900000000000D+00  0.0000000000000D+00  0.0000000000000D+00
   371  3.7000000000000D+00  0.0000000000000D+00  0.0000000000000D+00
   372  3.7100000000000D+00  0.0000000000000D+00  0.0000000000000D+00
   373  3.7200000000000D+00  0.0000000000000D+00  0.0000000000000D+00
   374  3.7300000000000D+00  0.0000000000000D+00  0.0000000000000D+00
   375  3.7400000000000D+00  0.0000000000000D+00  0.0000000000000D+00
   376  3.7500000000000D+00  0.0000000000000D+00  0.0000000000000D+00
   377  3.7600000000000D+00  0.0000000000000D+00  0.0000000000000D+00
   378  3.7700000000000D+00  0.0000000000000D+00  0.0000000000000D+00
   379  3.7800000000000D+00  0.0000000000000D+00  0.0000000000000D+00
   380  3.7900000000000D+00  0.0000000000000D+00  0.0000000000000D+00
   381  3.8000000000000D+00  0.0000000000000D+00  0.0000000000000D+00
   382  3.8100000000000D+00  0.0000000000000D+00  0.0000000000000D+00
   383  3.8200000000000D+00  0.0000000000000D+00  0.0000000000000D+00
   384  3.8300000000000D+00  0.0000000000000D+00  0.0000000000000D+00
   385  3.8400000000000D+00  0.0000000000000D+00  0.0000000000000D+00
   386  3.8500000000000D+00  0.0000000000000D+00  0.0000000000000D+00
   387  3.8600000000000D+00  0.0000000000000D+00  0.0000000000000D+00
   388  3.8700000000000D+00  0.0000000000000D+00  0.0000000000000D+00
   389  3.8800000000000D+00  0.0000000000000D+00  0.0000000000000D+00
   390  3.8900000000000D+00  0.0000000000000D+00  0.0000000000000D+00
   391  3.9000000000000D+00  0.0000000000000D+00  0.0000000000000D+00
   392  3.9100000000000D+00  0.0000000000000D+00  0.0000000000000D+00
   393  3.9200000000000D+00  0.0000000000000D+00  0.0000000000000D+00
   394  3.9300000000000D+00  0.0000000000000D+00  0.0000000000000D+00
   395  3.9400000000000D+00  0.0000000000000D+00  0.0000000000000D+00
   396  3.9500000000000D+00  0.0000000000000D+00  0.0000000000000D+00
   397  3.9600000000000D+00  0.0000000000000D+00  0.0000000000000D+00
   398  3.9700000000000D+00  0.0000000000000D+00  0.0000000000000D+00
   399  3.9800000000000D+00  0.0000000000000D+00  0.0000000000000D+00
   400  3.9900000000000D+00  0.0000000000000D+00  0.0000000000000D+00
   401  4.0000000000000D+00  0.0000000000000D+00  0.0000000000000D+00
   402  4.0100000000000D+00  0.0000000000000D+00  0.0000000000000D+00
   403  4.0200000000000D+00  0.0000000000000D+00  0.0000000000000D+00
   404  4.0300000000000D+00  0.0000000000000D+00  0.0000000000000D+00
   405  4.0400000000000D+00  0.0000000000000D+00  0.0000000000000D+00
   406  4.0500000000000D+00  0.0000000000000D+00  0.0000000000000D+00
   407  4.0600000000000D+00  0.0000000000000D+00  0.0000000000000D+00
   408  4.0700000000000D+00  0.0000000000000D+00  0.0000000000000D+00
   409  4.0800000000000D+00  0.0000000000000D+00  0.0000000000000D+00
   410  4.0900000000000D+00  0.0000000000000D+00  0.0000000000000D+00
   411  4.1000000000000D+00  0.0000000000000D+00  0.0000000000000D+00
   412  4.1100000000000D+00  0.0000000000000D+00  0.0000000000000D+00
   413  4.1200000000000D+00  0.0000000000000D+00  0.0000000000000D+00
   414  4.1300000000000D+00  0.0000000000000D+00  0.0000000000000D+00
   415  4.1400000000000D+00  0.0000000000000D+00  0.0000000000000D+00
   416  4.1500000000000D+00  0.0000000000000D+00  0.0000000000000D+00
   417  4.1600000000000D+00  0.0000000000000D+00  0.0000000000000D+00
   418  4.1700000000000D+00  0.0000000000000D+00  0.0000000000000D+00
   419  4.1800000000000D+00  0.0000000000000D+00  0.0000000000000D+00
   420  4.1900000000000D+00  0.0000000000000D+00  0.0000000000000D+00
   421  4.2000000000000D+00  0.0000000000000D+00  0.0000000000000D+00
   422  4.2100000000000D+00  0.0000000000000D+00  0.0000000000000D+00