Sm    ONCVPSP-3.3.0  r_core=   1.90007   1.51475   1.76883   1.70665
     62.0000     16.0000      220117    zatom,zion,pspd
     8      11   3     4   600     0    pspcod,pspxc,lmax,lloc,mmax,r2well
  5.99000000  0.00000000  0.00000000    rchrg fchrg qchrg
     2     2     2     2     0    nproj
     1     1           extension_switch
   0                         8.4600479477576D+00  5.7672376270266D-01
     1  0.0000000000000D+00 -2.6094681970790D-12  7.5465633742056D-11
     2  1.0000000000000D-02  3.9851756918343D-02 -1.4351903501281D-02
     3  2.0000000000000D-02  7.9675470396797D-02 -2.8657196381462D-02
     4  3.0000000000000D-02  1.1944307802652D-01 -4.2869508190515D-02
     5  4.0000000000000D-02  1.5912647961017D-01 -5.6942946692178D-02
     6  5.0000000000000D-02  1.9869751864182D-01 -7.0832331669085D-02
     7  6.0000000000000D-02  2.3812796423786D-01 -8.4493422419490D-02
     8  7.0000000000000D-02  2.7738949367229D-01 -9.7883136931748D-02
     9  8.0000000000000D-02  3.1645367567243D-01 -1.1095976079818D-01
    10  9.0000000000000D-02  3.5529195463428D-01 -1.2368314402295D-01
    11  1.0000000000000D-01  3.9387563592026D-01 -1.3601488398879D-01
    12  1.1000000000000D-01  4.3217587240593D-01 -1.4791849297349D-01
    13  1.2000000000000D-01  4.7016365244660D-01 -1.5935954874837D-01
    14  1.3000000000000D-01  5.0780978943874D-01 -1.7030582694622D-01
    15  1.4000000000000D-01  5.4508491315582D-01 -1.8072741405404D-01
    16  1.5000000000000D-01  5.8195946304173D-01 -1.9059680006512D-01
    17  1.6000000000000D-01  6.1840368364931D-01 -1.9988895001404D-01
    18  1.7000000000000D-01  6.5438762241424D-01 -2.0858135381551D-01
    19  1.8000000000000D-01  6.8988112995783D-01 -2.1665405403163D-01
    20  1.9000000000000D-01  7.2485386311348D-01 -2.2408965140119D-01
    21  2.0000000000000D-01  7.5927529087293D-01 -2.3087328817596D-01
    22  2.1000000000000D-01  7.9311470344764D-01 -2.3699260952233D-01
    23  2.2000000000000D-01  8.2634122463943D-01 -2.4243770345847D-01
    24  2.3000000000000D-01  8.5892382771075D-01 -2.4720102000707D-01
    25  2.4000000000000D-01  8.9083135494040D-01 -2.5127727044887D-01
    26  2.5000000000000D-01  9.2203254104362D-01 -2.5466330776064D-01
    27  2.6000000000000D-01  9.5249604062653D-01 -2.5735798951185D-01
    28  2.7000000000000D-01  9.8219045983398D-01 -2.5936202467418D-01
    29  2.8000000000000D-01  1.0110843923367D+00 -2.6067780596637D-01
    30  2.9000000000000D-01  1.0391464597877D+00 -2.6130922951123D-01
    31  3.0000000000000D-01  1.0663453568598D+00 -2.6126150372075D-01
    32  3.1000000000000D-01  1.0926499009558D+00 -2.6054094944742D-01
    33  3.2000000000000D-01  1.1180290866581D+00 -2.5915479354353D-01
    34  3.3000000000000D-01  1.1424521449612D+00 -2.5711095805495D-01
    35  3.4000000000000D-01  1.1658886072981D+00 -2.5441784733886D-01
    36  3.5000000000000D-01  1.1883083743446D+00 -2.5108413543686D-01
    37  3.6000000000000D-01  1.2096817895484D+00 -2.4711855605472D-01
    38  3.7000000000000D-01  1.2299797172957D+00 -2.4252969749563D-01
    39  3.8000000000000D-01  1.2491736255886D+00 -2.3732580486684D-01
    40  3.9000000000000D-01  1.2672356730669D+00 -2.3151459182932D-01
    41  4.0000000000000D-01  1.2841388001659D+00 -2.2510306408490D-01
    42  4.1000000000000D-01  1.2998568241551D+00 -2.1809735669831D-01
    43  4.2000000000000D-01  1.3143645377618D+00 -2.1050258723115D-01
    44  4.3000000000000D-01  1.3276378110333D+00 -2.0232272652227D-01
    45  4.4000000000000D-01  1.3396536960475D+00 -1.9356048878596D-01
    46  4.5000000000000D-01  1.3503905340312D+00 -1.8421724251652D-01
    47  4.6000000000000D-01  1.3598280644025D+00 -1.7429294348618D-01
    48  4.7000000000000D-01  1.3679475352037D+00 -1.6378609090626D-01
    49  4.8000000000000D-01  1.3747318143481D+00 -1.5269370758878D-01
    50  4.9000000000000D-01  1.3801655010588D+00 -1.4101134470146D-01
    51  5.0000000000000D-01  1.3842350368389D+00 -1.2873311145418D-01
    52  5.1000000000000D-01  1.3869288152711D+00 -1.1585172979313D-01
    53  5.2000000000000D-01  1.3882372899098D+00 -1.0235861391160D-01
    54  5.3000000000000D-01  1.3881530795005D+00 -8.8243974117598D-02
    55  5.4000000000000D-01  1.3866710697294D+00 -7.3496944330485D-02
    56  5.5000000000000D-01  1.3837885106882D+00 -5.8105732214403D-02
    57  5.6000000000000D-01  1.3795051092207D+00 -4.2057790699819D-02
    58  5.7000000000000D-01  1.3738231153082D+00 -2.5340009396599D-02
    59  5.8000000000000D-01  1.3667474016472D+00 -7.9389241691630D-03
    60  5.9000000000000D-01  1.3582855355758D+00  1.0159057074123D-02
    61  6.0000000000000D-01  1.3484478425168D+00  2.8967414523227D-02
    62  6.1000000000000D-01  1.3372474601239D+00  4.8499264863326D-02
    63  6.2000000000000D-01  1.3247003823456D+00  6.8767100401017D-02
    64  6.3000000000000D-01  1.3108254926558D+00  8.9782521519664D-02
    65  6.4000000000000D-01  1.2956445857450D+00  1.1155596516015D-01
    66  6.5000000000000D-01  1.2791823770197D+00  1.3409643208750D-01
    67  6.6000000000000D-01  1.2614664993194D+00  1.5741121573659D-01
    68  6.7000000000000D-01  1.2425274863299D+00  1.8150563542848D-01
    69  6.8000000000000D-01  1.2223987422539D+00  2.0638277671236D-01
    70  6.9000000000000D-01  1.2011164973853D+00  2.3204324151694D-01
    71  7.0000000000000D-01  1.1787197493282D+00  2.5848491068846D-01
    72  7.1000000000000D-01  1.1552501897096D+00  2.8570272135125D-01
    73  7.2000000000000D-01  1.1307521163377D+00  3.1368846135234D-01
    74  7.3000000000000D-01  1.1052723308792D+00  3.4243058284433D-01
    75  7.4000000000000D-01  1.0788600222476D+00  3.7191403682403D-01
    76  7.5000000000000D-01  1.0515666360206D+00  4.0212013017929D-01
    77  7.6000000000000D-01  1.0234457303322D+00  4.3302640650736D-01
    78  7.7000000000000D-01  9.9455281881869D-01  4.6460655165800D-01
    79  7.8000000000000D-01  9.6494520132546D-01  4.9683032462608D-01
    80  7.9000000000000D-01  9.3468178321551D-01  5.2966351407862D-01
    81  8.0000000000000D-01  9.0382288424771D-01  5.6306792045287D-01
    82  8.1000000000000D-01  8.7243003811871D-01  5.9700136321102D-01
    83  8.2000000000000D-01  8.4056578388243D-01  6.3141771248912D-01
    84  8.3000000000000D-01  8.0829345057428D-01  6.6626694403862D-01
    85  8.4000000000000D-01  7.7567693647219D-01  7.0149521603435D-01
    86  8.5000000000000D-01  7.4278048452125D-01  7.3704496601936D-01
    87  8.6000000000000D-01  7.0966845553152D-01  7.7285502598047D-01
    88  8.7000000000000D-01  6.7640510082826D-01  8.0886075330599D-01
    89  8.8000000000000D-01  6.4305433608789D-01  8.4499417517347D-01
    90  8.9000000000000D-01  6.0967951813090D-01  8.8118414375811D-01
    91  9.0000000000000D-01  5.7634322646269D-01  9.1735649954534D-01
    92  9.1000000000000D-01  5.4310705135343D-01  9.5343423998179D-01
    93  9.2000000000000D-01  5.1003139022773D-01  9.8933769070950D-01
    94  9.3000000000000D-01  4.7717525409322D-01  1.0249846767046D+00
    95  9.4000000000000D-01  4.4459608567221D-01  1.0602906907875D+00
    96  9.5000000000000D-01  4.1234959081381D-01  1.0951690571863D+00
    97  9.6000000000000D-01  3.8048958465033D-01  1.1295310881308D+00
    98  9.7000000000000D-01  3.4906785383169D-01  1.1632862318055D+00
    99  9.8000000000000D-01  3.1813403600734D-01  1.1963422104406D+00
   100  9.9000000000000D-01  2.8773551754727D-01  1.2286051478182D+00
   101  1.0000000000000D+00  2.5791735028791D-01  1.2599796860529D+00
   102  1.0100000000000D+00  2.2872218786324D-01  1.2903690921446D+00
   103  1.0200000000000D+00  2.0019024193722D-01  1.3196753554977D+00
   104  1.0300000000000D+00  1.7235925838018D-01  1.3477992783770D+00
   105  1.0400000000000D+00  1.4526451317260D-01  1.3746405620062D+00
   106  1.0500000000000D+00  1.1893882750124D-01  1.4000978919085D+00
   107  1.0600000000000D+00  9.3412601221867D-02  1.4240690268925D+00
   108  1.0700000000000D+00  6.8713863549122D-02  1.4464508969483D+00
   109  1.0800000000000D+00  4.4868339504800D-02  1.4671397161868D+00
   110  1.0900000000000D+00  2.1899530365768D-02  1.4860311177108D+00
   111  1.1000000000000D+00 -1.7119398364800D-04  1.5030203181426D+00
   112  1.1100000000000D+00 -2.1324493186829D-02  1.5180023202259D+00
   113  1.1200000000000D+00 -4.1542947715343D-02  1.5308721625324D+00
   114  1.1300000000000D+00 -6.0810946283993D-02  1.5415252258093D+00
   115  1.1400000000000D+00 -7.9114572553652D-02  1.5498576058891D+00
   116  1.1500000000000D+00 -9.6441494549032D-02  1.5557665633453D+00
   117  1.1600000000000D+00 -1.1278086035706D-01  1.5591510600445D+00
   118  1.1700000000000D+00 -1.2812320379941D-01  1.5599123925307D+00
   119  1.1800000000000D+00 -1.4246036387089D-01  1.5579549319333D+00
   120  1.1900000000000D+00 -1.5578542175413D-01  1.5531869792140D+00
   121  1.2000000000000D+00 -1.6809265911706D-01  1.5455217433361D+00
   122  1.2100000000000D+00 -1.7937754136278D-01  1.5348784492048D+00
   123  1.2200000000000D+00 -1.8963672926007D-01  1.5211835800128D+00
   124  1.2300000000000D+00 -1.9886812202123D-01  1.5043722562389D+00
   125  1.2400000000000D+00 -2.0707093456287D-01  1.4843897513733D+00
   126  1.2500000000000D+00 -2.1424581131551D-01  1.4611931419359D+00
   127  1.2600000000000D+00 -2.2039497800759D-01  1.4347530839726D+00
   128  1.2700000000000D+00 -2.2552243224675D-01  1.4050557049517D+00
   129  1.2800000000000D+00 -2.2963417329871D-01  1.3721045974055D+00
   130  1.2900000000000D+00 -2.3273846952905D-01  1.3359228904346D+00
   131  1.3000000000000D+00 -2.3484616133764D-01  1.2965553720356D+00
   132  1.3100000000000D+00 -2.3597099676953D-01  1.2540706315863D+00
   133  1.3200000000000D+00 -2.3612999362466D-01  1.2085631749080D+00
   134  1.3300000000000D+00 -2.3534382192453D-01  1.1601554646022D+00
   135  1.3400000000000D+00 -2.3363719880936D-01  1.1089998291885D+00
   136  1.3500000000000D+00 -2.3103928301011D-01  1.0552801605116D+00
   137  1.3600000000000D+00 -2.2758405829181D-01  9.9921332985582D-01
   138  1.3700000000000D+00 -2.2331068939773D-01  9.4105022440720D-01
   139  1.3800000000000D+00 -2.1826382970452D-01  8.8107628509970D-01
   140  1.3900000000000D+00 -2.1249386458974D-01  8.1961144973816D-01
   141  1.4000000000000D+00 -2.0605705962996D-01  7.5700933368378D-01
   142  1.4100000000000D+00 -1.9901558871731D-01  6.9365550921155D-01
   143  1.4200000000000D+00 -1.9143741163959D-01  6.2996471781855D-01
   144  1.4300000000000D+00 -1.8339595609227D-01  5.6637678028596D-01
   145  1.4400000000000D+00 -1.7496957671656D-01  5.0335105334875D-01
   146  1.4500000000000D+00 -1.6624073068460D-01  4.4135912399603D-01
   147  1.4600000000000D+00 -1.5729482809035D-01  3.8087552186063D-01
   148  1.4700000000000D+00 -1.4821867916237D-01  3.2236600054703D-01
   149  1.4800000000000D+00 -1.3909857770200D-01  2.6627388569680D-01
   150  1.4900000000000D+00 -1.3001758442980D-01  2.1300128143832D-01
   151  1.5000000000000D+00 -1.2105341082573D-01  1.6289586506895D-01
   152  1.5100000000000D+00 -1.1227233941192D-01  1.1620945730456D-01
   153  1.5200000000000D+00 -1.0372624308020D-01  7.3080897676633D-02
   154  1.5300000000000D+00 -9.5454316995355D-02  3.3558431791337D-02
   155  1.5400000000000D+00 -8.7485579126233D-02 -2.3761860648292D-03
   156  1.5500000000000D+00 -7.9845290875715D-02 -3.4756726057282D-02
   157  1.5600000000000D+00 -7.2555594959316D-02 -6.3626662747426D-02
   158  1.5700000000000D+00 -6.5634096383736D-02 -8.9051018092274D-02
   159  1.5800000000000D+00 -5.9094578474300D-02 -1.1111049020424D-01
   160  1.5900000000000D+00 -5.2946919085353D-02 -1.2990227212114D-01
   161  1.6000000000000D+00 -4.7197295800436D-02 -1.4553866012184D-01
   162  1.6100000000000D+00 -4.1848313048243D-02 -1.5814635638903D-01
   163  1.6200000000000D+00 -3.6899172367481D-02 -1.6786550763012D-01
   164  1.6300000000000D+00 -3.2345862981426D-02 -1.7484865419517D-01
   165  1.6400000000000D+00 -2.8181372342888D-02 -1.7925959121312D-01
   166  1.6500000000000D+00 -2.4395914018872D-02 -1.8127215411195D-01
   167  1.6600000000000D+00 -2.0977172006399D-02 -1.8106893273147D-01
   168  1.6700000000000D+00 -1.7910558873087D-02 -1.7883992628622D-01
   169  1.6800000000000D+00 -1.5179486357626D-02 -1.7478114556178D-01
   170  1.6900000000000D+00 -1.2765645820932D-02 -1.6909317463256D-01
   171  1.7000000000000D+00 -1.0649296977132D-02 -1.6197969929693D-01
   172  1.7100000000000D+00 -8.8095621877131D-03 -1.5364601520595D-01
   173  1.7200000000000D+00 -7.2247240127243D-03 -1.4429752708902D-01
   174  1.7300000000000D+00 -5.8725241230418D-03 -1.3413824711798D-01
   175  1.7400000000000D+00 -4.7304624139145D-03 -1.2336929643223D-01
   176  1.7500000000000D+00 -3.7760924549270D-03 -1.1218743038863D-01
   177  1.7600000000000D+00 -2.9873091660355D-03 -1.0078360930754D-01
   178  1.7700000000000D+00 -2.3426296446600D-03 -8.9341606530908D-02
   179  1.7800000000000D+00 -1.8214662990478D-03 -7.8036654656156D-02
   180  1.7900000000000D+00 -1.4043884147728D-03 -6.7034152753872D-02
   181  1.8000000000000D+00 -1.0733664642833D-03 -5.6488463999587D-02
   182  1.8100000000000D+00 -8.1200259337675D-04 -4.6541783592216D-02
   183  1.8200000000000D+00 -6.0574309734766D-04 -3.7323095576663D-02
   184  1.8300000000000D+00 -4.4207325531393D-04 -2.8947219148052D-02
   185  1.8400000000000D+00 -3.1075557745999D-04 -2.1519270722264D-02
   186  1.8500000000000D+00 -2.0371584551204D-04 -1.5112562955833D-02
   187  1.8600000000000D+00 -1.1559937188722D-04 -9.7706399603731D-03
   188  1.8700000000000D+00 -4.3514505045587D-05 -5.5857000761784D-03
   189  1.8800000000000D+00  1.3659629996902D-05 -2.6798277962537D-03
   190  1.8900000000000D+00  5.3172346144582D-05 -1.0143196721052D-03
   191  1.9000000000000D+00  6.4778106148504D-05 -2.5001845463570D-04
   192  1.9100000000000D+00  4.1205390498108D-05  5.8818322150465D-06
   193  1.9200000000000D+00  8.0605481083640D-06  1.3280929673054D-05
   194  1.9300000000000D+00 -7.4227719867006D-06 -1.7787820276539D-05
   195  1.9400000000000D+00 -4.9350871405941D-06 -1.4655647187275D-05
   196  1.9500000000000D+00  1.0422107478720D-06  1.3859719719379D-06
   197  1.9600000000000D+00  1.5742399263705D-06  2.5370060548922D-06
   198  1.9700000000000D+00 -2.0527151170705D-08  7.8286027841134D-08
   199  1.9800000000000D+00 -1.8309846142876D-07  6.9829715433369D-07
   200  1.9900000000000D+00 -6.5621013017771D-08  2.5026407265925D-07
   201  2.0000000000000D+00  0.0000000000000D+00  0.0000000000000D+00
   202  2.0100000000000D+00  0.0000000000000D+00  0.0000000000000D+00
   203  2.0200000000000D+00  0.0000000000000D+00  0.0000000000000D+00
   204  2.0300000000000D+00  0.0000000000000D+00  0.0000000000000D+00
   205  2.0400000000000D+00  0.0000000000000D+00  0.0000000000000D+00
   206  2.0500000000000D+00  0.0000000000000D+00  0.0000000000000D+00
   207  2.0600000000000D+00  0.0000000000000D+00  0.0000000000000D+00
   208  2.0700000000000D+00  0.0000000000000D+00  0.0000000000000D+00
   209  2.0800000000000D+00  0.0000000000000D+00  0.0000000000000D+00
   210  2.0900000000000D+00  0.0000000000000D+00  0.0000000000000D+00
   211  2.1000000000000D+00  0.0000000000000D+00  0.0000000000000D+00
   212  2.1100000000000D+00  0.0000000000000D+00  0.0000000000000D+00
   213  2.1200000000000D+00  0.0000000000000D+00  0.0000000000000D+00
   214  2.1300000000000D+00  0.0000000000000D+00  0.0000000000000D+00
   215  2.1400000000000D+00  0.0000000000000D+00  0.0000000000000D+00
   216  2.1500000000000D+00  0.0000000000000D+00  0.0000000000000D+00
   217  2.1600000000000D+00  0.0000000000000D+00  0.0000000000000D+00
   218  2.1700000000000D+00  0.0000000000000D+00  0.0000000000000D+00
   219  2.1800000000000D+00  0.0000000000000D+00  0.0000000000000D+00
   220  2.1900000000000D+00  0.0000000000000D+00  0.0000000000000D+00
   221  2.2000000000000D+00  0.0000000000000D+00  0.0000000000000D+00
   222  2.2100000000000D+00  0.0000000000000D+00  0.0000000000000D+00
   223  2.2200000000000D+00  0.0000000000000D+00  0.0000000000000D+00
   224  2.2300000000000D+00  0.0000000000000D+00  0.0000000000000D+00
   225  2.2400000000000D+00  0.0000000000000D+00  0.0000000000000D+00
   226  2.2500000000000D+00  0.0000000000000D+00  0.0000000000000D+00
   227  2.2600000000000D+00  0.0000000000000D+00  0.0000000000000D+00
   228  2.2700000000000D+00  0.0000000000000D+00  0.0000000000000D+00
   229  2.2800000000000D+00  0.0000000000000D+00  0.0000000000000D+00
   230  2.2900000000000D+00  0.0000000000000D+00  0.0000000000000D+00
   231  2.3000000000000D+00  0.0000000000000D+00  0.0000000000000D+00
   232  2.3100000000000D+00  0.0000000000000D+00  0.0000000000000D+00
   233  2.3200000000000D+00  0.0000000000000D+00  0.0000000000000D+00
   234  2.3300000000000D+00  0.0000000000000D+00  0.0000000000000D+00
   235  2.3400000000000D+00  0.0000000000000D+00  0.0000000000000D+00
   236  2.3500000000000D+00  0.0000000000000D+00  0.0000000000000D+00
   237  2.3600000000000D+00  0.0000000000000D+00  0.0000000000000D+00
   238  2.3700000000000D+00  0.0000000000000D+00  0.0000000000000D+00
   239  2.3800000000000D+00  0.0000000000000D+00  0.0000000000000D+00
   240  2.3900000000000D+00  0.0000000000000D+00  0.0000000000000D+00
   241  2.4000000000000D+00  0.0000000000000D+00  0.0000000000000D+00
   242  2.4100000000000D+00  0.0000000000000D+00  0.0000000000000D+00
   243  2.4200000000000D+00  0.0000000000000D+00  0.0000000000000D+00
   244  2.4300000000000D+00  0.0000000000000D+00  0.0000000000000D+00
   245  2.4400000000000D+00  0.0000000000000D+00  0.0000000000000D+00
   246  2.4500000000000D+00  0.0000000000000D+00  0.0000000000000D+00
   247  2.4600000000000D+00  0.0000000000000D+00  0.0000000000000D+00
   248  2.4700000000000D+00  0.0000000000000D+00  0.0000000000000D+00
   249  2.4800000000000D+00  0.0000000000000D+00  0.0000000000000D+00
   250  2.4900000000000D+00  0.0000000000000D+00  0.0000000000000D+00
   251  2.5000000000000D+00  0.0000000000000D+00  0.0000000000000D+00
   252  2.5100000000000D+00  0.0000000000000D+00  0.0000000000000D+00
   253  2.5200000000000D+00  0.0000000000000D+00  0.0000000000000D+00
   254  2.5300000000000D+00  0.0000000000000D+00  0.0000000000000D+00
   255  2.5400000000000D+00  0.0000000000000D+00  0.0000000000000D+00
   256  2.5500000000000D+00  0.0000000000000D+00  0.0000000000000D+00
   257  2.5600000000000D+00  0.0000000000000D+00  0.0000000000000D+00
   258  2.5700000000000D+00  0.0000000000000D+00  0.0000000000000D+00
   259  2.5800000000000D+00  0.0000000000000D+00  0.0000000000000D+00
   260  2.5900000000000D+00  0.0000000000000D+00  0.0000000000000D+00
   261  2.6000000000000D+00  0.0000000000000D+00  0.0000000000000D+00
   262  2.6100000000000D+00  0.0000000000000D+00  0.0000000000000D+00
   263  2.6200000000000D+00  0.0000000000000D+00  0.0000000000000D+00
   264  2.6300000000000D+00  0.0000000000000D+00  0.0000000000000D+00
   265  2.6400000000000D+00  0.0000000000000D+00  0.0000000000000D+00
   266  2.6500000000000D+00  0.0000000000000D+00  0.0000000000000D+00
   267  2.6600000000000D+00  0.0000000000000D+00  0.0000000000000D+00
   268  2.6700000000000D+00  0.0000000000000D+00  0.0000000000000D+00
   269  2.6800000000000D+00  0.0000000000000D+00  0.0000000000000D+00
   270  2.6900000000000D+00  0.0000000000000D+00  0.0000000000000D+00
   271  2.7000000000000D+00  0.0000000000000D+00  0.0000000000000D+00
   272  2.7100000000000D+00  0.0000000000000D+00  0.0000000000000D+00
   273  2.7200000000000D+00  0.0000000000000D+00  0.0000000000000D+00
   274  2.7300000000000D+00  0.0000000000000D+00  0.0000000000000D+00
   275  2.7400000000000D+00  0.0000000000000D+00  0.0000000000000D+00
   276  2.7500000000000D+00  0.0000000000000D+00  0.0000000000000D+00
   277  2.7600000000000D+00  0.0000000000000D+00  0.0000000000000D+00
   278  2.7700000000000D+00  0.0000000000000D+00  0.0000000000000D+00
   279  2.7800000000000D+00  0.0000000000000D+00  0.0000000000000D+00
   280  2.7900000000000D+00  0.0000000000000D+00  0.0000000000000D+00
   281  2.8000000000000D+00  0.0000000000000D+00  0.0000000000000D+00
   282  2.8100000000000D+00  0.0000000000000D+00  0.0000000000000D+00
   283  2.8200000000000D+00  0.0000000000000D+00  0.0000000000000D+00
   284  2.8300000000000D+00  0.0000000000000D+00  0.0000000000000D+00
   285  2.8400000000000D+00  0.0000000000000D+00  0.0000000000000D+00
   286  2.8500000000000D+00  0.0000000000000D+00  0.0000000000000D+00
   287  2.8600000000000D+00  0.0000000000000D+00  0.0000000000000D+00
   288  2.8700000000000D+00  0.0000000000000D+00  0.0000000000000D+00
   289  2.8800000000000D+00  0.0000000000000D+00  0.0000000000000D+00
   290  2.8900000000000D+00  0.0000000000000D+00  0.0000000000000D+00
   291  2.9000000000000D+00  0.0000000000000D+00  0.0000000000000D+00
   292  2.9100000000000D+00  0.0000000000000D+00  0.0000000000000D+00
   293  2.9200000000000D+00  0.0000000000000D+00  0.0000000000000D+00
   294  2.9300000000000D+00  0.0000000000000D+00  0.0000000000000D+00
   295  2.9400000000000D+00  0.0000000000000D+00  0.0000000000000D+00
   296  2.9500000000000D+00  0.0000000000000D+00  0.0000000000000D+00
   297  2.9600000000000D+00  0.0000000000000D+00  0.0000000000000D+00
   298  2.9700000000000D+00  0.0000000000000D+00  0.0000000000000D+00
   299  2.9800000000000D+00  0.0000000000000D+00  0.0000000000000D+00
   300  2.9900000000000D+00  0.0000000000000D+00  0.0000000000000D+00
   301  3.0000000000000D+00  0.0000000000000D+00  0.0000000000000D+00
   302  3.0100000000000D+00  0.0000000000000D+00  0.0000000000000D+00
   303  3.0200000000000D+00  0.0000000000000D+00  0.0000000000000D+00
   304  3.0300000000000D+00  0.0000000000000D+00  0.0000000000000D+00
   305  3.0400000000000D+00  0.0000000000000D+00  0.0000000000000D+00
   306  3.0500000000000D+00  0.0000000000000D+00  0.0000000000000D+00
   307  3.0600000000000D+00  0.0000000000000D+00  0.0000000000000D+00
   308  3.0700000000000D+00  0.0000000000000D+00  0.0000000000000D+00
   309  3.0800000000000D+00  0.0000000000000D+00  0.0000000000000D+00
   310  3.0900000000000D+00  0.0000000000000D+00  0.0000000000000D+00
   311  3.1000000000000D+00  0.0000000000000D+00  0.0000000000000D+00
   312  3.1100000000000D+00  0.0000000000000D+00  0.0000000000000D+00
   313  3.1200000000000D+00  0.0000000000000D+00  0.0000000000000D+00
   314  3.1300000000000D+00  0.0000000000000D+00  0.0000000000000D+00
   315  3.1400000000000D+00  0.0000000000000D+00  0.0000000000000D+00
   316  3.1500000000000D+00  0.0000000000000D+00  0.0000000000000D+00
   317  3.1600000000000D+00  0.0000000000000D+00  0.0000000000000D+00
   318  3.1700000000000D+00  0.0000000000000D+00  0.0000000000000D+00
   319  3.1800000000000D+00  0.0000000000000D+00  0.0000000000000D+00
   320  3.1900000000000D+00  0.0000000000000D+00  0.0000000000000D+00
   321  3.2000000000000D+00  0.0000000000000D+00  0.0000000000000D+00
   322  3.2100000000000D+00  0.0000000000000D+00  0.0000000000000D+00
   323  3.2200000000000D+00  0.0000000000000D+00  0.0000000000000D+00
   324  3.2300000000000D+00  0.0000000000000D+00  0.0000000000000D+00
   325  3.2400000000000D+00  0.0000000000000D+00  0.0000000000000D+00
   326  3.2500000000000D+00  0.0000000000000D+00  0.0000000000000D+00
   327  3.2600000000000D+00  0.0000000000000D+00  0.0000000000000D+00
   328  3.2700000000000D+00  0.0000000000000D+00  0.0000000000000D+00
   329  3.2800000000000D+00  0.0000000000000D+00  0.0000000000000D+00
   330  3.2900000000000D+00  0.0000000000000D+00  0.0000000000000D+00
   331  3.3000000000000D+00  0.0000000000000D+00  0.0000000000000D+00
   332  3.3100000000000D+00  0.0000000000000D+00  0.0000000000000D+00
   333  3.3200000000000D+00  0.0000000000000D+00  0.0000000000000D+00
   334  3.3300000000000D+00  0.0000000000000D+00  0.0000000000000D+00
   335  3.3400000000000D+00  0.0000000000000D+00  0.0000000000000D+00
   336  3.3500000000000D+00  0.0000000000000D+00  0.0000000000000D+00
   337  3.3600000000000D+00  0.0000000000000D+00  0.0000000000000D+00
   338  3.3700000000000D+00  0.0000000000000D+00  0.0000000000000D+00
   339  3.3800000000000D+00  0.0000000000000D+00  0.0000000000000D+00
   340  3.3900000000000D+00  0.0000000000000D+00  0.0000000000000D+00
   341  3.4000000000000D+00  0.0000000000000D+00  0.0000000000000D+00
   342  3.4100000000000D+00  0.0000000000000D+00  0.0000000000000D+00
   343  3.4200000000000D+00  0.0000000000000D+00  0.0000000000000D+00
   344  3.4300000000000D+00  0.0000000000000D+00  0.0000000000000D+00
   345  3.4400000000000D+00  0.0000000000000D+00  0.0000000000000D+00
   346  3.4500000000000D+00  0.0000000000000D+00  0.0000000000000D+00
   347  3.4600000000000D+00  0.0000000000000D+00  0.0000000000000D+00
   348  3.4700000000000D+00  0.0000000000000D+00  0.0000000000000D+00
   349  3.4800000000000D+00  0.0000000000000D+00  0.0000000000000D+00
   350  3.4900000000000D+00  0.0000000000000D+00  0.0000000000000D+00
   351  3.5000000000000D+00  0.0000000000000D+00  0.0000000000000D+00
   352  3.5100000000000D+00  0.0000000000000D+00  0.0000000000000D+00
   353  3.5200000000000D+00  0.0000000000000D+00  0.0000000000000D+00
   354  3.5300000000000D+00  0.0000000000000D+00  0.0000000000000D+00
   355  3.5400000000000D+00  0.0000000000000D+00  0.0000000000000D+00
   356  3.5500000000000D+00  0.0000000000000D+00  0.0000000000000D+00
   357  3.5600000000000D+00  0.0000000000000D+00  0.0000000000000D+00
   358  3.5700000000000D+00  0.0000000000000D+00  0.0000000000000D+00
   359  3.5800000000000D+00  0.0000000000000D+00  0.0000000000000D+00
   360  3.5900000000000D+00  0.0000000000000D+00  0.0000000000000D+00
   361  3.6000000000000D+00  0.0000000000000D+00  0.0000000000000D+00
   362  3.6100000000000D+00  0.0000000000000D+00  0.0000000000000D+00
   363  3.6200000000000D+00  0.0000000000000D+00  0.0000000000000D+00
   364  3.6300000000000D+00  0.0000000000000D+00  0.0000000000000D+00
   365  3.6400000000000D+00  0.0000000000000D+00  0.0000000000000D+00
   366  3.6500000000000D+00  0.0000000000000D+00  0.0000000000000D+00
   367  3.6600000000000D+00  0.0000000000000D+00  0.0000000000000D+00
   368  3.6700000000000D+00  0.0000000000000D+00  0.0000000000000D+00
   369  3.6800000000000D+00  0.0000000000000D+00  0.0000000000000D+00
   370  3.6900000000000D+00  0.0000000000000D+00  0.0000000000000D+00
   371  3.7000000000000D+00  0.0000000000000D+00  0.0000000000000D+00
   372  3.7100000000000D+00  0.0000000000000D+00  0.0000000000000D+00
   373  3.7200000000000D+00  0.0000000000000D+00  0.0000000000000D+00
   374  3.7300000000000D+00  0.0000000000000D+00  0.0000000000000D+00
   375  3.7400000000000D+00  0.0000000000000D+00  0.0000000000000D+00
   376  3.7500000000000D+00  0.0000000000000D+00  0.0000000000000D+00
   377  3.7600000000000D+00  0.0000000000000D+00  0.0000000000000D+00
   378  3.7700000000000D+00  0.0000000000000D+00  0.0000000000000D+00
   379  3.7800000000000D+00  0.0000000000000D+00  0.0000000000000D+00
   380  3.7900000000000D+00  0.0000000000000D+00  0.0000000000000D+00
   381  3.8000000000000D+00  0.0000000000000D+00  0.0000000000000D+00
   382  3.8100000000000D+00  0.0000000000000D+00  0.0000000000000D+00
   383  3.8200000000000D+00  0.0000000000000D+00  0.0000000000000D+00
   384  3.8300000000000D+00  0.0000000000000D+00  0.0000000000000D+00
   385  3.8400000000000D+00  0.0000000000000D+00  0.0000000000000D+00
   386  3.8500000000000D+00  0.0000000000000D+00  0.0000000000000D+00
   387  3.8600000000000D+00  0.0000000000000D+00  0.0000000000000D+00
   388  3.8700000000000D+00  0.0000000000000D+00  0.0000000000000D+00
   389  3.8800000000000D+00  0.0000000000000D+00  0.0000000000000D+00
   390  3.8900000000000D+00  0.0000000000000D+00  0.0000000000000D+00
   391  3.9000000000000D+00  0.0000000000000D+00  0.0000000000000D+00
   392  3.9100000000000D+00  0.0000000000000D+00  0.0000000000000D+00
   393  3.9200000000000D+00  0.0000000000000D+00  0.0000000000000D+00
   394  3.9300000000000D+00  0.0000000000000D+00  0.0000000000000D+00
   395  3.9400000000000D+00  0.0000000000000D+00  0.0000000000000D+00
   396  3.9500000000000D+00  0.0000000000000D+00  0.0000000000000D+00
   397  3.9600000000000D+00  0.0000000000000D+00  0.0000000000000D+00
   398  3.9700000000000D+00  0.0000000000000D+00  0.0000000000000D+00
   399  3.9800000000000D+00  0.0000000000000D+00  0.0000000000000D+00
   400  3.9900000000000D+00  0.0000000000000D+00  0.0000000000000D+00
   401  4.0000000000000D+00  0.0000000000000D+00  0.0000000000000D+00
   402  4.0100000000000D+00  0.0000000000000D+00  0.0000000000000D+00
   403  4.0200000000000D+00  0.0000000000000D+00  0.0000000000000D+00
   404  4.0300000000000D+00  0.0000000000000D+00  0.0000000000000D+00
   405  4.0400000000000D+00  0.0000000000000D+00  0.0000000000000D+00
   406  4.0500000000000D+00  0.0000000000000D+00  0.0000000000000D+00
   407  4.0600000000000D+00  0.0000000000000D+00  0.0000000000000D+00
   408  4.0700000000000D+00  0.0000000000000D+00  0.0000000000000D+00
   409  4.0800000000000D+00  0.0000000000000D+00  0.0000000000000D+00
   410  4.0900000000000D+00  0.0000000000000D+00  0.0000000000000D+00
   411  4.1000000000000D+00  0.0000000000000D+00  0.0000000000000D+00
   412  4.1100000000000D+00  0.0000000000000D+00  0.0000000000000D+00
   413  4.1200000000000D+00  0.0000000000000D+00  0.0000000000000D+00
   414  4.1300000000000D+00  0.0000000000000D+00  0.0000000000000D+00
   415  4.1400000000000D+00  0.0000000000000D+00  0.0000000000000D+00
   416  4.1500000000000D+00  0.0000000000000D+00  0.0000000000000D+00
   417  4.1600000000000D+00  0.0000000000000D+00  0.0000000000000D+00
   418  4.1700000000000D+00  0.0000000000000D+00  0.0000000000000D+00
   419  4.1800000000000D+00  0.0000000000000D+00  0.0000000000000D+00
   420  4.1900000000000D+00  0.0000000000000D+00  0.0000000000000D+00
   421  4.2000000000000D+00  0.0000000000000D+00  0.0000000000000D+00
   422  4.2100000000000D+00  0.0000000000000D+00  0.0000000000000D+00