<UPF version="2.0.1">
  <PP_INFO>

 This pseudopotential file has been produced using the code
 ONCVPSP  (Optimized Norm-Conservinng Vanderbilt PSeudopotential)
 scalar-relativistic version 3.3.0 08/16/2017 by D. R. Hamann
 The code is available through a link at URL www.mat-simresearch.com.
 Documentation with the package provides a full discription of the
 input data below.


 While it is not required under the terms of the GNU GPL, it is
 suggested that you cite D. R. Hamann, Phys. Rev. B 88, 085117 (2013)
 in any publication using these pseudopotentials.

    <PP_INPUTFILE>
# ATOM AND REFERENCE CONFIGURATION
# atsym  z   nc   nv     iexc    psfile
  O  8.00    1    2       4      both
#
#   n    l    f        energy (Ha)
    1    0    2.00
    2    0    2.00
    2    1    4.00
#
# PSEUDOPOTENTIAL AND OPTIMIZATION
# lmax
    2
#
#   l,   rc,      ep,       ncon, nbas, qcut
    0   1.25000  -0.88057    4    8   8.50000
    1   1.35000  -0.33187    4    8   9.40000
    2   1.25000   0.10000    4    8   6.00000
#
# LOCAL POTENTIAL
# lloc, lpopt,  rc(5),   dvloc0
    4    5   1.20000      0.00000
#
# VANDERBILT-KLEINMAN-BYLANDER PROJECTORs
# l, nproj, debl
    0    2   1.00000
    1    2   1.00000
    2    1   1.00000
#
# MODEL CORE CHARGE
# icmod, fcfact, rcfact
    0   0.00000   0.00000
#
# LOG DERIVATIVE ANALYSIS
# epsh1, epsh2, depsh
  -12.00   12.00    0.02
#
# OUTPUT GRID
# rlmax, drl
    6.00    0.01
#
# TEST CONFIGURATIONS
# ncnf
    0
# nvcnf
#   n    l    f
    </PP_INPUTFILE>
  </PP_INFO>
  <!--                               -->
  <!-- END OF HUMAN READABLE SECTION -->
  <!--                               -->
    <PP_HEADER
       generated="Generated using ONCVPSP code by D. R. Hamann"
       author="anonymous"
       date="220117"
       comment=""
       element="O "
       pseudo_type="NC"
       relativistic="scalar"
       is_ultrasoft="F"
       is_paw="F"
       is_coulomb="F"
       has_so="F"
       has_wfc="F"
       has_gipaw="F"
       core_correction="F"
       functional="PBE"
       z_valence="    6.00"
       total_psenergy="  -3.14581044560E+01"
       rho_cutoff="   9.35000000000E+00"
       l_max="2"
       l_local="-1"
       mesh_size="   936"
       number_of_wfc="2"
       number_of_proj="5"/>
 <PP_MESH>
   <PP_R type="real"  size=" 936" columns="8">
    0.0000    0.0100    0.0200    0.0300    0.0400    0.0500    0.0600    0.0700
    0.0800    0.0900    0.1000    0.1100    0.1200    0.1300    0.1400    0.1500
    0.1600    0.1700    0.1800    0.1900    0.2000    0.2100    0.2200    0.2300
    0.2400    0.2500    0.2600    0.2700    0.2800    0.2900    0.3000    0.3100
    0.3200    0.3300    0.3400    0.3500    0.3600    0.3700    0.3800    0.3900
    0.4000    0.4100    0.4200    0.4300    0.4400    0.4500    0.4600    0.4700
    0.4800    0.4900    0.5000    0.5100    0.5200    0.5300    0.5400    0.5500
    0.5600    0.5700    0.5800    0.5900    0.6000    0.6100    0.6200    0.6300
    0.6400    0.6500    0.6600    0.6700    0.6800    0.6900    0.7000    0.7100
    0.7200    0.7300    0.7400    0.7500    0.7600    0.7700    0.7800    0.7900
    0.8000    0.8100    0.8200    0.8300    0.8400    0.8500    0.8600    0.8700
    0.8800    0.8900    0.9000    0.9100    0.9200    0.9300    0.9400    0.9500
    0.9600    0.9700    0.9800    0.9900    1.0000    1.0100    1.0200    1.0300
    1.0400    1.0500    1.0600    1.0700    1.0800    1.0900    1.1000    1.1100
    1.1200    1.1300    1.1400    1.1500    1.1600    1.1700    1.1800    1.1900
    1.2000    1.2100    1.2200    1.2300    1.2400    1.2500    1.2600    1.2700
    1.2800    1.2900    1.3000    1.3100    1.3200    1.3300    1.3400    1.3500
    1.3600    1.3700    1.3800    1.3900    1.4000    1.4100    1.4200    1.4300
    1.4400    1.4500    1.4600    1.4700    1.4800    1.4900    1.5000    1.5100
    1.5200    1.5300    1.5400    1.5500    1.5600    1.5700    1.5800    1.5900
    1.6000    1.6100    1.6200    1.6300    1.6400    1.6500    1.6600    1.6700
    1.6800    1.6900    1.7000    1.7100    1.7200    1.7300    1.7400    1.7500
    1.7600    1.7700    1.7800    1.7900    1.8000    1.8100    1.8200    1.8300
    1.8400    1.8500    1.8600    1.8700    1.8800    1.8900    1.9000    1.9100
    1.9200    1.9300    1.9400    1.9500    1.9600    1.9700    1.9800    1.9900
    2.0000    2.0100    2.0200    2.0300    2.0400    2.0500    2.0600    2.0700
    2.0800    2.0900    2.1000    2.1100    2.1200    2.1300    2.1400    2.1500
    2.1600    2.1700    2.1800    2.1900    2.2000    2.2100    2.2200    2.2300
    2.2400    2.2500    2.2600    2.2700    2.2800    2.2900    2.3000    2.3100
    2.3200    2.3300    2.3400    2.3500    2.3600    2.3700    2.3800    2.3900
    2.4000    2.4100    2.4200    2.4300    2.4400    2.4500    2.4600    2.4700
    2.4800    2.4900    2.5000    2.5100    2.5200    2.5300    2.5400    2.5500
    2.5600    2.5700    2.5800    2.5900    2.6000    2.6100    2.6200    2.6300
    2.6400    2.6500    2.6600    2.6700    2.6800    2.6900    2.7000    2.7100
    2.7200    2.7300    2.7400    2.7500    2.7600    2.7700    2.7800    2.7900
    2.8000    2.8100    2.8200    2.8300    2.8400    2.8500    2.8600    2.8700
    2.8800    2.8900    2.9000    2.9100    2.9200    2.9300    2.9400    2.9500
    2.9600    2.9700    2.9800    2.9900    3.0000    3.0100    3.0200    3.0300
    3.0400    3.0500    3.0600    3.0700    3.0800    3.0900    3.1000    3.1100
    3.1200    3.1300    3.1400    3.1500    3.1600    3.1700    3.1800    3.1900
    3.2000    3.2100    3.2200    3.2300    3.2400    3.2500    3.2600    3.2700
    3.2800    3.2900    3.3000    3.3100    3.3200    3.3300    3.3400    3.3500
    3.3600    3.3700    3.3800    3.3900    3.4000    3.4100    3.4200    3.4300
    3.4400    3.4500    3.4600    3.4700    3.4800    3.4900    3.5000    3.5100
    3.5200    3.5300    3.5400    3.5500    3.5600    3.5700    3.5800    3.5900
    3.6000    3.6100    3.6200    3.6300    3.6400    3.6500    3.6600    3.6700
    3.6800    3.6900    3.7000    3.7100    3.7200    3.7300    3.7400    3.7500
    3.7600    3.7700    3.7800    3.7900    3.8000    3.8100    3.8200    3.8300
    3.8400    3.8500    3.8600    3.8700    3.8800    3.8900    3.9000    3.9100
    3.9200    3.9300    3.9400    3.9500    3.9600    3.9700    3.9800    3.9900
    4.0000    4.0100    4.0200    4.0300    4.0400    4.0500    4.0600    4.0700
    4.0800    4.0900    4.1000    4.1100    4.1200    4.1300    4.1400    4.1500
    4.1600    4.1700    4.1800    4.1900    4.2000    4.2100    4.2200    4.2300
    4.2400    4.2500    4.2600    4.2700    4.2800    4.2900    4.3000    4.3100
    4.3200    4.3300    4.3400    4.3500    4.3600    4.3700    4.3800    4.3900
    4.4000    4.4100    4.4200    4.4300    4.4400    4.4500    4.4600    4.4700
    4.4800    4.4900    4.5000    4.5100    4.5200    4.5300    4.5400    4.5500
    4.5600    4.5700    4.5800    4.5900    4.6000    4.6100    4.6200    4.6300
    4.6400    4.6500    4.6600    4.6700    4.6800    4.6900    4.7000    4.7100
    4.7200    4.7300    4.7400    4.7500    4.7600    4.7700    4.7800    4.7900
    4.8000    4.8100    4.8200    4.8300    4.8400    4.8500    4.8600    4.8700
    4.8800    4.8900    4.9000    4.9100    4.9200    4.9300    4.9400    4.9500
    4.9600    4.9700    4.9800    4.9900    5.0000    5.0100    5.0200    5.0300
    5.0400    5.0500    5.0600    5.0700    5.0800    5.0900    5.1000    5.1100
    5.1200    5.1300    5.1400    5.1500    5.1600    5.1700    5.1800    5.1900
    5.2000    5.2100    5.2200    5.2300    5.2400    5.2500    5.2600    5.2700
    5.2800    5.2900    5.3000    5.3100    5.3200    5.3300    5.3400    5.3500
    5.3600    5.3700    5.3800    5.3900    5.4000    5.4100    5.4200    5.4300
    5.4400    5.4500    5.4600    5.4700    5.4800    5.4900    5.5000    5.5100
    5.5200    5.5300    5.5400    5.5500    5.5600    5.5700    5.5800    5.5900
    5.6000    5.6100    5.6200    5.6300    5.6400    5.6500    5.6600    5.6700
    5.6800    5.6900    5.7000    5.7100    5.7200    5.7300    5.7400    5.7500
    5.7600    5.7700    5.7800    5.7900    5.8000    5.8100    5.8200    5.8300
    5.8400    5.8500    5.8600    5.8700    5.8800    5.8900    5.9000    5.9100
    5.9200    5.9300    5.9400    5.9500    5.9600    5.9700    5.9800    5.9900
    6.0000    6.0100    6.0200    6.0300    6.0400    6.0500    6.0600    6.0700
    6.0800    6.0900    6.1000    6.1100    6.1200    6.1300    6.1400    6.1500
    6.1600    6.1700    6.1800    6.1900    6.2000    6.2100    6.2200    6.2300
    6.2400    6.2500    6.2600    6.2700    6.2800    6.2900    6.3000    6.3100
    6.3200    6.3300    6.3400    6.3500    6.3600    6.3700    6.3800    6.3900
    6.4000    6.4100    6.4200    6.4300    6.4400    6.4500    6.4600    6.4700
    6.4800    6.4900    6.5000    6.5100    6.5200    6.5300    6.5400    6.5500
    6.5600    6.5700    6.5800    6.5900    6.6000    6.6100    6.6200    6.6300
    6.6400    6.6500    6.6600    6.6700    6.6800    6.6900    6.7000    6.7100
    6.7200    6.7300    6.7400    6.7500    6.7600    6.7700    6.7800    6.7900
    6.8000    6.8100    6.8200    6.8300    6.8400    6.8500    6.8600    6.8700
    6.8800    6.8900    6.9000    6.9100    6.9200    6.9300    6.9400    6.9500
    6.9600    6.9700    6.9800    6.9900    7.0000    7.0100    7.0200    7.0300
    7.0400    7.0500    7.0600    7.0700    7.0800    7.0900    7.1000    7.1100
    7.1200    7.1300    7.1400    7.1500    7.1600    7.1700    7.1800    7.1900
    7.2000    7.2100    7.2200    7.2300    7.2400    7.2500    7.2600    7.2700
    7.2800    7.2900    7.3000    7.3100    7.3200    7.3300    7.3400    7.3500
    7.3600    7.3700    7.3800    7.3900    7.4000    7.4100    7.4200    7.4300
    7.4400    7.4500    7.4600    7.4700    7.4800    7.4900    7.5000    7.5100
    7.5200    7.5300    7.5400    7.5500    7.5600    7.5700    7.5800    7.5900
    7.6000    7.6100    7.6200    7.6300    7.6400    7.6500    7.6600    7.6700
    7.6800    7.6900    7.7000    7.7100    7.7200    7.7300    7.7400    7.7500
    7.7600    7.7700    7.7800    7.7900    7.8000    7.8100    7.8200    7.8300
    7.8400    7.8500    7.8600    7.8700    7.8800    7.8900    7.9000    7.9100
    7.9200    7.9300    7.9400    7.9500    7.9600    7.9700    7.9800    7.9900
    8.0000    8.0100    8.0200    8.0300    8.0400    8.0500    8.0600    8.0700
    8.0800    8.0900    8.1000    8.1100    8.1200    8.1300    8.1400    8.1500
    8.1600    8.1700    8.1800    8.1900    8.2000    8.2100    8.2200    8.2300
    8.2400    8.2500    8.2600    8.2700    8.2800    8.2900    8.3000    8.3100
    8.3200    8.3300    8.3400    8.3500    8.3600    8.3700    8.3800    8.3900
    8.4000    8.4100    8.4200    8.4300    8.4400    8.4500    8.4600    8.4700
    8.4800    8.4900    8.5000    8.5100    8.5200    8.5300    8.5400    8.5500
    8.5600    8.5700    8.5800    8.5900    8.6000    8.6100    8.6200    8.6300
    8.6400    8.6500    8.6600    8.6700    8.6800    8.6900    8.7000    8.7100
    8.7200    8.7300    8.7400    8.7500    8.7600    8.7700    8.7800    8.7900
    8.8000    8.8100    8.8200    8.8300    8.8400    8.8500    8.8600    8.8700
    8.8800    8.8900    8.9000    8.9100    8.9200    8.9300    8.9400    8.9500
    8.9600    8.9700    8.9800    8.9900    9.0000    9.0100    9.0200    9.0300
    9.0400    9.0500    9.0600    9.0700    9.0800    9.0900    9.1000    9.1100
    9.1200    9.1300    9.1400    9.1500    9.1600    9.1700    9.1800    9.1900
    9.2000    9.2100    9.2200    9.2300    9.2400    9.2500    9.2600    9.2700
    9.2800    9.2900    9.3000    9.3100    9.3200    9.3300    9.3400    9.3500
   </PP_R>
   <PP_RAB type="real"  size=" 936" columns="8">
    0.0100    0.0100    0.0100    0.0100    0.0100    0.0100    0.0100    0.0100
    0.0100    0.0100    0.0100    0.0100    0.0100    0.0100    0.0100    0.0100
    0.0100    0.0100    0.0100    0.0100    0.0100    0.0100    0.0100    0.0100
    0.0100    0.0100    0.0100    0.0100    0.0100    0.0100    0.0100    0.0100
    0.0100    0.0100    0.0100    0.0100    0.0100    0.0100    0.0100    0.0100
    0.0100    0.0100    0.0100    0.0100    0.0100    0.0100    0.0100    0.0100
    0.0100    0.0100    0.0100    0.0100    0.0100    0.0100    0.0100    0.0100
    0.0100    0.0100    0.0100    0.0100    0.0100    0.0100    0.0100    0.0100
    0.0100    0.0100    0.0100    0.0100    0.0100    0.0100    0.0100    0.0100
    0.0100    0.0100    0.0100    0.0100    0.0100    0.0100    0.0100    0.0100
    0.0100    0.0100    0.0100    0.0100    0.0100    0.0100    0.0100    0.0100
    0.0100    0.0100    0.0100    0.0100    0.0100    0.0100    0.0100    0.0100
    0.0100    0.0100    0.0100    0.0100    0.0100    0.0100    0.0100    0.0100
    0.0100    0.0100    0.0100    0.0100    0.0100    0.0100    0.0100    0.0100
    0.0100    0.0100    0.0100    0.0100    0.0100    0.0100    0.0100    0.0100
    0.0100    0.0100    0.0100    0.0100    0.0100    0.0100    0.0100    0.0100
    0.0100    0.0100    0.0100    0.0100    0.0100    0.0100    0.0100    0.0100
    0.0100    0.0100    0.0100    0.0100    0.0100    0.0100    0.0100    0.0100
    0.0100    0.0100    0.0100    0.0100    0.0100    0.0100    0.0100    0.0100
    0.0100    0.0100    0.0100    0.0100    0.0100    0.0100    0.0100    0.0100
    0.0100    0.0100    0.0100    0.0100    0.0100    0.0100    0.0100    0.0100
    0.0100    0.0100    0.0100    0.0100    0.0100    0.0100    0.0100    0.0100
    0.0100    0.0100    0.0100    0.0100    0.0100    0.0100    0.0100    0.0100
    0.0100    0.0100    0.0100    0.0100    0.0100    0.0100    0.0100    0.0100
    0.0100    0.0100    0.0100    0.0100    0.0100    0.0100    0.0100    0.0100
    0.0100    0.0100    0.0100    0.0100    0.0100    0.0100    0.0100    0.0100
    0.0100    0.0100    0.0100    0.0100    0.0100    0.0100    0.0100    0.0100
    0.0100    0.0100    0.0100    0.0100    0.0100    0.0100    0.0100    0.0100
    0.0100    0.0100    0.0100    0.0100    0.0100    0.0100    0.0100    0.0100
    0.0100    0.0100    0.0100    0.0100    0.0100    0.0100    0.0100    0.0100
    0.0100    0.0100    0.0100    0.0100    0.0100    0.0100    0.0100    0.0100
    0.0100    0.0100    0.0100    0.0100    0.0100    0.0100    0.0100    0.0100
    0.0100    0.0100    0.0100    0.0100    0.0100    0.0100    0.0100    0.0100
    0.0100    0.0100    0.0100    0.0100    0.0100    0.0100    0.0100    0.0100
    0.0100    0.0100    0.0100    0.0100    0.0100    0.0100    0.0100    0.0100
    0.0100    0.0100    0.0100    0.0100    0.0100    0.0100    0.0100    0.0100
    0.0100    0.0100    0.0100    0.0100    0.0100    0.0100    0.0100    0.0100
    0.0100    0.0100    0.0100    0.0100    0.0100    0.0100    0.0100    0.0100
    0.0100    0.0100    0.0100    0.0100    0.0100    0.0100    0.0100    0.0100
    0.0100    0.0100    0.0100    0.0100    0.0100    0.0100    0.0100    0.0100
    0.0100    0.0100    0.0100    0.0100    0.0100    0.0100    0.0100    0.0100
    0.0100    0.0100    0.0100    0.0100    0.0100    0.0100    0.0100    0.0100
    0.0100    0.0100    0.0100    0.0100    0.0100    0.0100    0.0100    0.0100
    0.0100    0.0100    0.0100    0.0100    0.0100    0.0100    0.0100    0.0100
    0.0100    0.0100    0.0100    0.0100    0.0100    0.0100    0.0100    0.0100
    0.0100    0.0100    0.0100    0.0100    0.0100    0.0100    0.0100    0.0100
    0.0100    0.0100    0.0100    0.0100    0.0100    0.0100    0.0100    0.0100
    0.0100    0.0100    0.0100    0.0100    0.0100    0.0100    0.0100    0.0100
    0.0100    0.0100    0.0100    0.0100    0.0100    0.0100    0.0100    0.0100
    0.0100    0.0100    0.0100    0.0100    0.0100    0.0100    0.0100    0.0100
    0.0100    0.0100    0.0100    0.0100    0.0100    0.0100    0.0100    0.0100
    0.0100    0.0100    0.0100    0.0100    0.0100    0.0100    0.0100    0.0100
    0.0100    0.0100    0.0100    0.0100    0.0100    0.0100    0.0100    0.0100
    0.0100    0.0100    0.0100    0.0100    0.0100    0.0100    0.0100    0.0100
    0.0100    0.0100    0.0100    0.0100    0.0100    0.0100    0.0100    0.0100
    0.0100    0.0100    0.0100    0.0100    0.0100    0.0100    0.0100    0.0100
    0.0100    0.0100    0.0100    0.0100    0.0100    0.0100    0.0100    0.0100
    0.0100    0.0100    0.0100    0.0100    0.0100    0.0100    0.0100    0.0100
    0.0100    0.0100    0.0100    0.0100    0.0100    0.0100    0.0100    0.0100
    0.0100    0.0100    0.0100    0.0100    0.0100    0.0100    0.0100    0.0100
    0.0100    0.0100    0.0100    0.0100    0.0100    0.0100    0.0100    0.0100
    0.0100    0.0100    0.0100    0.0100    0.0100    0.0100    0.0100    0.0100
    0.0100    0.0100    0.0100    0.0100    0.0100    0.0100    0.0100    0.0100
    0.0100    0.0100    0.0100    0.0100    0.0100    0.0100    0.0100    0.0100
    0.0100    0.0100    0.0100    0.0100    0.0100    0.0100    0.0100    0.0100
    0.0100    0.0100    0.0100    0.0100    0.0100    0.0100    0.0100    0.0100
    0.0100    0.0100    0.0100    0.0100    0.0100    0.0100    0.0100    0.0100
    0.0100    0.0100    0.0100    0.0100    0.0100    0.0100    0.0100    0.0100
    0.0100    0.0100    0.0100    0.0100    0.0100    0.0100    0.0100    0.0100
    0.0100    0.0100    0.0100    0.0100    0.0100    0.0100    0.0100    0.0100
    0.0100    0.0100    0.0100    0.0100    0.0100    0.0100    0.0100    0.0100
    0.0100    0.0100    0.0100    0.0100    0.0100    0.0100    0.0100    0.0100
    0.0100    0.0100    0.0100    0.0100    0.0100    0.0100    0.0100    0.0100
    0.0100    0.0100    0.0100    0.0100    0.0100    0.0100    0.0100    0.0100
    0.0100    0.0100    0.0100    0.0100    0.0100    0.0100    0.0100    0.0100
    0.0100    0.0100    0.0100    0.0100    0.0100    0.0100    0.0100    0.0100
    0.0100    0.0100    0.0100    0.0100    0.0100    0.0100    0.0100    0.0100
    0.0100    0.0100    0.0100    0.0100    0.0100    0.0100    0.0100    0.0100
    0.0100    0.0100    0.0100    0.0100    0.0100    0.0100    0.0100    0.0100
    0.0100    0.0100    0.0100    0.0100    0.0100    0.0100    0.0100    0.0100
    0.0100    0.0100    0.0100    0.0100    0.0100    0.0100    0.0100    0.0100
    0.0100    0.0100    0.0100    0.0100    0.0100    0.0100    0.0100    0.0100
    0.0100    0.0100    0.0100    0.0100    0.0100    0.0100    0.0100    0.0100
    0.0100    0.0100    0.0100    0.0100    0.0100    0.0100    0.0100    0.0100
    0.0100    0.0100    0.0100    0.0100    0.0100    0.0100    0.0100    0.0100
    0.0100    0.0100    0.0100    0.0100    0.0100    0.0100    0.0100    0.0100
    0.0100    0.0100    0.0100    0.0100    0.0100    0.0100    0.0100    0.0100
    0.0100    0.0100    0.0100    0.0100    0.0100    0.0100    0.0100    0.0100
    0.0100    0.0100    0.0100    0.0100    0.0100    0.0100    0.0100    0.0100
    0.0100    0.0100    0.0100    0.0100    0.0100    0.0100    0.0100    0.0100
    0.0100    0.0100    0.0100    0.0100    0.0100    0.0100    0.0100    0.0100
    0.0100    0.0100    0.0100    0.0100    0.0100    0.0100    0.0100    0.0100
    0.0100    0.0100    0.0100    0.0100    0.0100    0.0100    0.0100    0.0100
    0.0100    0.0100    0.0100    0.0100    0.0100    0.0100    0.0100    0.0100
    0.0100    0.0100    0.0100    0.0100    0.0100    0.0100    0.0100    0.0100
    0.0100    0.0100    0.0100    0.0100    0.0100    0.0100    0.0100    0.0100
    0.0100    0.0100    0.0100    0.0100    0.0100    0.0100    0.0100    0.0100
    0.0100    0.0100    0.0100    0.0100    0.0100    0.0100    0.0100    0.0100
    0.0100    0.0100    0.0100    0.0100    0.0100    0.0100    0.0100    0.0100
    0.0100    0.0100    0.0100    0.0100    0.0100    0.0100    0.0100    0.0100
    0.0100    0.0100    0.0100    0.0100    0.0100    0.0100    0.0100    0.0100
    0.0100    0.0100    0.0100    0.0100    0.0100    0.0100    0.0100    0.0100
    0.0100    0.0100    0.0100    0.0100    0.0100    0.0100    0.0100    0.0100
    0.0100    0.0100    0.0100    0.0100    0.0100    0.0100    0.0100    0.0100
    0.0100    0.0100    0.0100    0.0100    0.0100    0.0100    0.0100    0.0100
    0.0100    0.0100    0.0100    0.0100    0.0100    0.0100    0.0100    0.0100
    0.0100    0.0100    0.0100    0.0100    0.0100    0.0100    0.0100    0.0100
    0.0100    0.0100    0.0100    0.0100    0.0100    0.0100    0.0100    0.0100
    0.0100    0.0100    0.0100    0.0100    0.0100    0.0100    0.0100    0.0100
    0.0100    0.0100    0.0100    0.0100    0.0100    0.0100    0.0100    0.0100
    0.0100    0.0100    0.0100    0.0100    0.0100    0.0100    0.0100    0.0100
    0.0100    0.0100    0.0100    0.0100    0.0100    0.0100    0.0100    0.0100
    0.0100    0.0100    0.0100    0.0100    0.0100    0.0100    0.0100    0.0100
    0.0100    0.0100    0.0100    0.0100    0.0100    0.0100    0.0100    0.0100
    0.0100    0.0100    0.0100    0.0100    0.0100    0.0100    0.0100    0.0100
    0.0100    0.0100    0.0100    0.0100    0.0100    0.0100    0.0100    0.0100
    0.0100    0.0100    0.0100    0.0100    0.0100    0.0100    0.0100    0.0100
   </PP_RAB>
 </PP_MESH>
  <PP_LOCAL type="real"  size=" 936" columns="4">
   -2.2734918343E+01   -2.2870162961E+01   -2.3669429106E+01   -2.4232542619E+01
   -2.4430987867E+01   -2.4381924548E+01   -2.4212945978E+01   -2.4004364142E+01
   -2.3795806799E+01   -2.3602233522E+01   -2.3426187374E+01   -2.3265064211E+01
   -2.3114808771E+01   -2.2971544462E+01   -2.2832159801E+01   -2.2694422251E+01
   -2.2556900978E+01   -2.2418825343E+01   -2.2279932383E+01   -2.2140324564E+01
   -2.2000346153E+01   -2.1860481324E+01   -2.1721274636E+01   -2.1583272805E+01
   -2.1446985390E+01   -2.1312861071E+01   -2.1181275702E+01   -2.1052528325E+01
   -2.0926841725E+01   -2.0804364741E+01   -2.0685174313E+01   -2.0569276034E+01
   -2.0456602718E+01   -2.0347011202E+01   -2.0240278175E+01   -2.0136096370E+01
   -2.0034072787E+01   -1.9933730773E+01   -1.9834517619E+01   -1.9735818871E+01
   -1.9636979670E+01   -1.9537332384E+01   -1.9436228577E+01   -1.9333072343E+01
   -1.9227351463E+01   -1.9118662831E+01   -1.9006729274E+01   -1.8891406126E+01
   -1.8772677371E+01   -1.8650642617E+01   -1.8525497236E+01   -1.8397508572E+01
   -1.8266991130E+01   -1.8134283225E+01   -1.7999726878E+01   -1.7863651952E+01
   -1.7726364816E+01   -1.7588141291E+01   -1.7449223245E+01   -1.7309818086E+01
   -1.7170100330E+01   -1.7030214528E+01   -1.6890278939E+01   -1.6750389489E+01
   -1.6610623671E+01   -1.6471044199E+01   -1.6331702252E+01   -1.6192640298E+01
   -1.6053894449E+01   -1.5915496405E+01   -1.5777475002E+01   -1.5639857420E+01
   -1.5502670114E+01   -1.5365939492E+01   -1.5229692400E+01   -1.5093956450E+01
   -1.4958760221E+01   -1.4824133360E+01   -1.4690106604E+01   -1.4556711753E+01
   -1.4423981589E+01   -1.4291949770E+01   -1.4160650700E+01   -1.4030119382E+01
   -1.3900391262E+01   -1.3771502069E+01   -1.3643487648E+01   -1.3516383800E+01
   -1.3390226119E+01   -1.3265049830E+01   -1.3140889642E+01   -1.3017779596E+01
   -1.2895752922E+01   -1.2774841909E+01   -1.2655077773E+01   -1.2536490537E+01
   -1.2419108922E+01   -1.2302960240E+01   -1.2188070300E+01   -1.2074463316E+01
   -1.1962161835E+01   -1.1851186658E+01   -1.1741556780E+01   -1.1633289335E+01
   -1.1526399544E+01   -1.1420900674E+01   -1.1316804001E+01   -1.1214118780E+01
   -1.1112852213E+01   -1.1013009429E+01   -1.0914593455E+01   -1.0817605197E+01
   -1.0722043411E+01   -1.0627904674E+01   -1.0535183352E+01   -1.0443871556E+01
   -1.0353959093E+01   -1.0265433403E+01   -1.0178279481E+01   -1.0092479843E+01
   -1.0008014281E+01   -9.9248598177E+00   -9.8429926151E+00   -9.7623894129E+00
   -9.6830288239E+00   -9.6048904383E+00   -9.5279606690E+00   -9.4522359112E+00
   -9.3777225279E+00   -9.3044203784E+00   -9.2323129507E+00   -9.1613775940E+00
   -9.0915932287E+00   -9.0229452704E+00   -8.9554163054E+00   -8.8889791305E+00
   -8.8235919823E+00   -8.7591977780E+00   -8.6957356886E+00   -8.6331751642E+00
   -8.5715029525E+00   -8.5107090274E+00   -8.4507763809E+00   -8.3916803090E+00
   -8.3334036068E+00   -8.2759313177E+00   -8.2192464367E+00   -8.1633326417E+00
   -8.1081744113E+00   -8.0537565499E+00   -8.0000642434E+00   -7.9470830802E+00
   -7.8947990273E+00   -7.8431984181E+00   -7.7922679408E+00   -7.7419946268E+00
   -7.6923658399E+00   -7.6433692657E+00   -7.5949929014E+00   -7.5472250459E+00
   -7.5000542906E+00   -7.4534695103E+00   -7.4074598543E+00   -7.3620147379E+00
   -7.3171238349E+00   -7.2727770691E+00   -7.2289646069E+00   -7.1856768505E+00
   -7.1429044303E+00   -7.1006381986E+00   -7.0588692228E+00   -7.0175887793E+00
   -6.9767883472E+00   -6.9364596026E+00   -6.8965944132E+00   -6.8571848322E+00
   -6.8182230936E+00   -6.7797016068E+00   -6.7416129517E+00   -6.7039498743E+00
   -6.6667052814E+00   -6.6298722368E+00   -6.5934439566E+00   -6.5574138053E+00
   -6.5217752915E+00   -6.4865220643E+00   -6.4516479093E+00   -6.4171467450E+00
   -6.3830126192E+00   -6.3492397060E+00   -6.3158223018E+00   -6.2827548227E+00
   -6.2500318008E+00   -6.2176478820E+00   -6.1855978221E+00   -6.1538764849E+00
   -6.1224788387E+00   -6.0913999542E+00   -6.0606350015E+00   -6.0301792479E+00
   -6.0000280553E+00   -5.9701768779E+00   -5.9406212601E+00   -5.9113568338E+00
   -5.8823793167E+00   -5.8536845102E+00   -5.8252682968E+00   -5.7971266391E+00
   -5.7692555771E+00   -5.7416512264E+00   -5.7143097769E+00   -5.6872274906E+00
   -5.6604007000E+00   -5.6338258066E+00   -5.6074992790E+00   -5.5814176516E+00
   -5.5555775231E+00   -5.5299755545E+00   -5.5046084686E+00   -5.4794730476E+00
   -5.4545661326E+00   -5.4298846214E+00   -5.4054254682E+00   -5.3811856816E+00
   -5.3571623235E+00   -5.3333525083E+00   -5.3097534013E+00   -5.2863622177E+00
   -5.2631762218E+00   -5.2401927254E+00   -5.2174090873E+00   -5.1948227118E+00
   -5.1724310483E+00   -5.1502315895E+00   -5.1282218714E+00   -5.1063994718E+00
   -5.0847620094E+00   -5.0633071433E+00   -5.0420325718E+00   -5.0209360319E+00
   -5.0000152981E+00   -4.9792681820E+00   -4.9586925313E+00   -4.9382862292E+00
   -4.9180471934E+00   -4.8979733759E+00   -4.8780627618E+00   -4.8583133688E+00
   -4.8387232467E+00   -4.8192904766E+00   -4.8000131703E+00   -4.7808894696E+00
   -4.7619175459E+00   -4.7430955995E+00   -4.7244218590E+00   -4.7058945808E+00
   -4.6875120484E+00   -4.6692725724E+00   -4.6511744893E+00   -4.6332161616E+00
   -4.6153959764E+00   -4.5977123460E+00   -4.5801637066E+00   -4.5627485183E+00
   -4.5454652648E+00   -4.5283124526E+00   -4.5112886106E+00   -4.4943922897E+00
   -4.4776220622E+00   -4.4609765220E+00   -4.4444542837E+00   -4.4280539822E+00
   -4.4117742728E+00   -4.3956138302E+00   -4.3795713485E+00   -4.3636455410E+00
   -4.3478351394E+00   -4.3321388939E+00   -4.3165555726E+00   -4.3010839611E+00
   -4.2857228626E+00   -4.2704710973E+00   -4.2553275021E+00   -4.2402909302E+00
   -4.2253602511E+00   -4.2105343502E+00   -4.1958121283E+00   -4.1811925018E+00
   -4.1666744018E+00   -4.1522567746E+00   -4.1379385807E+00   -4.1237187950E+00
   -4.1095964065E+00   -4.0955704179E+00   -4.0816398455E+00   -4.0678037190E+00
   -4.0540610812E+00   -4.0404109878E+00   -4.0268525070E+00   -4.0133847196E+00
   -4.0000067188E+00   -3.9867176096E+00   -3.9735165090E+00   -3.9604025456E+00
   -3.9473748595E+00   -3.9344326020E+00   -3.9215749356E+00   -3.9088010336E+00
   -3.8961100803E+00   -3.8835012701E+00   -3.8709738082E+00   -3.8585269099E+00
   -3.8461598004E+00   -3.8338717151E+00   -3.8216618989E+00   -3.8095296063E+00
   -3.7974741015E+00   -3.7854946575E+00   -3.7735905570E+00   -3.7617610913E+00
   -3.7500055606E+00   -3.7383232741E+00   -3.7267135493E+00   -3.7151757122E+00
   -3.7037090972E+00   -3.6923130468E+00   -3.6809869116E+00   -3.6697300503E+00
   -3.6585418292E+00   -3.6474216224E+00   -3.6363688115E+00   -3.6253827857E+00
   -3.6144629415E+00   -3.6036086827E+00   -3.5928194202E+00   -3.5820945718E+00
   -3.5714335625E+00   -3.5608358239E+00   -3.5503007945E+00   -3.5398279192E+00
   -3.5294166497E+00   -3.5190664439E+00   -3.5087767662E+00   -3.4985470872E+00
   -3.4883768836E+00   -3.4782656382E+00   -3.4682128399E+00   -3.4582179832E+00
   -3.4482805687E+00   -3.4384001025E+00   -3.4285760967E+00   -3.4188080685E+00
   -3.4090955409E+00   -3.3994380421E+00   -3.3898351059E+00   -3.3802862711E+00
   -3.3707910819E+00   -3.3613490873E+00   -3.3519598416E+00   -3.3426229040E+00
   -3.3333378386E+00   -3.3241042143E+00   -3.3149216048E+00   -3.3057895884E+00
   -3.2967077482E+00   -3.2876756718E+00   -3.2786929512E+00   -3.2697591830E+00
   -3.2608739682E+00   -3.2520369118E+00   -3.2432476236E+00   -3.2345057171E+00
   -3.2258108103E+00   -3.2171625251E+00   -3.2085604877E+00   -3.2000043279E+00
   -3.1914936797E+00   -3.1830281810E+00   -3.1746074734E+00   -3.1662312023E+00
   -3.1578990170E+00   -3.1496105704E+00   -3.1413655188E+00   -3.1331635223E+00
   -3.1250042447E+00   -3.1168873530E+00   -3.1088125178E+00   -3.1007794131E+00
   -3.0927877162E+00   -3.0848371077E+00   -3.0769272716E+00   -3.0690578950E+00
   -3.0612286684E+00   -3.0534392851E+00   -3.0456894419E+00   -3.0379788384E+00
   -3.0303071773E+00   -3.0226741644E+00   -3.0150795084E+00   -3.0075229207E+00
   -3.0000041160E+00   -2.9925228115E+00   -2.9850787274E+00   -2.9776715867E+00
   -2.9703011149E+00   -2.9629670404E+00   -2.9556690943E+00   -2.9484070104E+00
   -2.9411805248E+00   -2.9339893765E+00   -2.9268333070E+00   -2.9197120601E+00
   -2.9126253822E+00   -2.9055730224E+00   -2.8985547319E+00   -2.8915702644E+00
   -2.8846193759E+00   -2.8777018250E+00   -2.8708173724E+00   -2.8639657810E+00
   -2.8571468161E+00   -2.8503602453E+00   -2.8436058383E+00   -2.8368833669E+00