O     ONCVPSP-3.3.0  r_core=   1.35509   1.45563   1.26150
      8.0000      6.0000      220117    zatom,zion,pspd
     8      11   2     4   600     0    pspcod,pspxc,lmax,lloc,mmax,r2well
  5.99000000  0.00000000  0.00000000    rchrg fchrg qchrg
     2     2     1     0     0    nproj
     1     1           extension_switch
   0                         6.0567354658417D+00  8.2402409604399D-01
     1  0.0000000000000D+00 -2.2497728124904D-09  5.6882532573077D-09
     2  1.0000000000000D-02  9.6628298952156D-02 -3.8338277548967D-02
     3  2.0000000000000D-02  1.9288513878793D-01 -7.6200751005445D-02
     4  3.0000000000000D-02  2.8840191055426D-01 -1.1311751300426D-01
     5  4.0000000000000D-02  3.8281566850618D-01 -1.4863035927239D-01
     6  5.0000000000000D-02  4.7577186950092D-01 -1.8229841575136D-01
     7  6.0000000000000D-02  5.6692700337145D-01 -2.1370350053756D-01
     8  7.0000000000000D-02  6.5595108063046D-01 -2.4245513905128D-01
     9  8.0000000000000D-02  7.4252994610506D-01 -2.6819515653308D-01
    10  9.0000000000000D-02  8.2636738984510D-01 -2.9060177889893D-01
    11  1.0000000000000D-01  9.0718702983834D-01 -3.0939318104820D-01
    12  1.1000000000000D-01  9.8473394465139D-01 -3.2433043077820D-01
    13  1.2000000000000D-01  1.0587760380385D+00 -3.3521978636731D-01
    14  1.3000000000000D-01  1.1291051217554D+00 -3.4191431647996D-01
    15  1.4000000000000D-01  1.1955377072161D+00 -3.4431482214871D-01
    16  1.5000000000000D-01  1.2579155011604D+00 -3.4237005201525D-01
    17  1.6000000000000D-01  1.3161056050912D+00 -3.3607621357567D-01
    18  1.7000000000000D-01  1.3700004228111D+00 -3.2547579468405D-01
    19  1.8000000000000D-01  1.4195172848667D+00 -3.1065572082991D-01
    20  1.9000000000000D-01  1.4645978030228D+00 -2.9174488453426D-01
    21  2.0000000000000D-01  1.5052069719634D+00 -2.6891109342288D-01
    22  2.1000000000000D-01  1.5413320391874D+00 -2.4235749296577D-01
    23  2.2000000000000D-01  1.5729811674746D+00 -2.1231852835835D-01
    24  2.3000000000000D-01  1.6001819172763D+00 -1.7905551742190D-01
    25  2.4000000000000D-01  1.6229795789003D+00 -1.4285191259168D-01
    26  2.5000000000000D-01  1.6414353863538D+00 -1.0400833493603D-01
    27  2.6000000000000D-01  1.6556246461645D+00 -6.2837466626000D-02
    28  2.7000000000000D-01  1.6656348153772D+00 -1.9658890288935D-02
    29  2.8000000000000D-01  1.6715635632253D+00  2.5206035801158D-02
    30  2.9000000000000D-01  1.6735168506812D+00  7.1439178735647D-02
    31  3.0000000000000D-01  1.6716070612143D+00  1.1873042271104D-01
    32  3.1000000000000D-01  1.6659512146411D+00  1.6678216996592D-01
    33  3.2000000000000D-01  1.6566692939567D+00  2.1531347472426D-01
    34  3.3000000000000D-01  1.6438827125381D+00  2.6406374060172D-01
    35  3.4000000000000D-01  1.6277129461335D+00  3.1279591978100D-01
    36  3.5000000000000D-01  1.6082803506622D+00  3.6129916118239D-01
    37  3.6000000000000D-01  1.5857031830943D+00  4.0939086470153D-01
    38  3.7000000000000D-01  1.5600968386279D+00  4.5691810919207D-01
    39  3.8000000000000D-01  1.5315733131005D+00  5.0375843306295D-01
    40  3.9000000000000D-01  1.5002408951335D+00  5.4981995794704D-01
    41  4.0000000000000D-01  1.4662040879932D+00  5.9504085768766D-01
    42  4.1000000000000D-01  1.4295637566299D+00  6.3938818668207D-01
    43  4.2000000000000D-01  1.3904174909189D+00  6.8285609321343D-01
    44  4.3000000000000D-01  1.3488601718333D+00  7.2546345460077D-01
    45  4.4000000000000D-01  1.3049847232215D+00  7.6725098160217D-01
    46  4.5000000000000D-01  1.2588830281020D+00  8.0827784934098D-01
    47  4.6000000000000D-01  1.2106469849954D+00  8.4861792090951D-01
    48  4.7000000000000D-01  1.1603696768531D+00  8.8835563759000D-01
    49  4.8000000000000D-01  1.1081466226576D+00  9.2758165616889D-01
    50  4.9000000000000D-01  1.0540770798259D+00  9.6638831899799D-01
    51  5.0000000000000D-01  9.9826536415838D-01  1.0048650461661D+00
    52  5.1000000000000D-01  9.4082215329447D-01  1.0430937413243D+00
    53  5.2000000000000D-01  8.8186573946263D-01  1.0811443032968D+00
    54  5.3000000000000D-01  8.2152319776336D-01  1.1190703345951D+00
    55  5.4000000000000D-01  7.5993143729723D-01  1.1569051353339D+00
    56  5.5000000000000D-01  6.9723810412929D-01  1.1946580668547D+00
    57  5.6000000000000D-01  6.3360230734769D-01  1.2323113636548D+00
    58  5.7000000000000D-01  5.6919514228647D-01  1.2698174650950D+00
    59  5.8000000000000D-01  5.0419998831519D-01  1.3070969298784D+00
    60  5.9000000000000D-01  4.3881256236743D-01  1.3440369866770D+00
    61  6.0000000000000D-01  3.7324071357161D-01  1.3804907635611D+00
    62  6.1000000000000D-01  3.0770394883925D-01  1.4162772273693D+00
    63  6.2000000000000D-01  2.4243268403646D-01  1.4511818519043D+00
    64  6.3000000000000D-01  1.7766722030084D-01  1.4849580211329D+00
    65  6.4000000000000D-01  1.1365645008426D-01  1.5173291606230D+00
    66  6.5000000000000D-01  5.0656302561104D-02  1.5479915773772D+00
    67  6.6000000000000D-01 -1.1072057013486D-02  1.5766179754043D+00
    68  6.7000000000000D-01 -7.1264254609614D-02  1.6028616018990D+00
    69  6.8000000000000D-01 -1.2965493744685D-01  1.6263609670100D+00
    70  6.9000000000000D-01 -1.8598017857173D-01  1.6467450691334D+00
    71  7.0000000000000D-01 -2.3998002400971D-01  1.6636390476370D+00
    72  7.1000000000000D-01 -2.9140114715024D-01  1.6766701760089D+00
    73  7.2000000000000D-01 -3.3999957222070D-01  1.6854741009300D+00
    74  7.3000000000000D-01 -3.8554342648061D-01  1.6897012267188D+00
    75  7.4000000000000D-01 -4.2781567918151D-01  1.6890231401690D+00
    76  7.5000000000000D-01 -4.6661682442210D-01  1.6831389680598D+00
    77  7.6000000000000D-01 -5.0176746480607D-01  1.6717815586381D+00
    78  7.7000000000000D-01 -5.3311075329964D-01  1.6547233791960D+00
    79  7.8000000000000D-01 -5.6051465188166D-01  1.6317820244910D+00
    80  7.9000000000000D-01 -5.8387396747512D-01  1.6028252351564D+00
    81  8.0000000000000D-01 -6.0311212822167D-01  1.5677753313819D+00
    82  8.1000000000000D-01 -6.1818266637743D-01  1.5266129749215D+00
    83  8.2000000000000D-01 -6.2907037792308D-01  1.4793801817937D+00
    84  8.3000000000000D-01 -6.3579213334092D-01  1.4261825187497D+00
    85  8.4000000000000D-01 -6.3839731884958D-01  1.3671904285304D+00
    86  8.5000000000000D-01 -6.3696789263217D-01  1.3026396419303D+00
    87  8.6000000000000D-01 -6.3161804616443D-01  1.2328306485401D+00
    88  8.7000000000000D-01 -6.2249346655835D-01  1.1581272125204D+00
    89  8.8000000000000D-01 -6.0977020179419D-01  1.0789539346460D+00
    90  8.9000000000000D-01 -5.9365313672237D-01  9.9579287690874D-01
    91  9.0000000000000D-01 -5.7437409368159D-01  9.0917928093413D-01
    92  9.1000000000000D-01 -5.5218957740239D-01  8.1969642610373D-01
    93  9.2000000000000D-01 -5.2737818945095D-01  7.2796968734845D-01
    94  9.3000000000000D-01 -5.0023774272332D-01  6.3465986584048D-01
    95  9.4000000000000D-01 -4.7108211133740D-01  5.4045587804822D-01
    96  9.5000000000000D-01 -4.4023785560575D-01  4.4606689961644D-01
    97  9.6000000000000D-01 -4.0804066553280D-01  3.5221407010291D-01
    98  9.7000000000000D-01 -3.7483166939805D-01  2.5962187257301D-01
    99  9.8000000000000D-01 -3.4095365640948D-01  1.6900930829111D-01
   100  9.9000000000000D-01 -3.0674726407087D-01  8.1080991077004D-02
   101  1.0000000000000D+00 -2.7254718182300D-01 -3.4817116385629D-03
   102  1.0100000000000D+00 -2.3867842261204D-01 -8.4029363611194D-02
   103  1.0200000000000D+00 -2.0545271331407D-01 -1.5995284463374D-01
   104  1.0300000000000D+00 -1.7316505343578D-01 -2.3069131325341D-01
   105  1.0400000000000D+00 -1.4209048924043D-01 -2.9573963069906D-01
   106  1.0500000000000D+00 -1.1248114716500D-01 -3.5465513743064D-01
   107  1.0600000000000D+00 -8.4563567123731D-02 -4.0706368178966D-01
   108  1.0700000000000D+00 -5.8536371249444D-02 -4.5266481271575D-01
   109  1.0800000000000D+00 -3.4568298984978D-02 -4.9123606001066D-01
   110  1.0900000000000D+00 -1.2796633771976D-02 -5.2263623971041D-01
   111  1.1000000000000D+00  6.6739597555845D-03 -5.4680773791173D-01
   112  1.1100000000000D+00  2.3772174445939D-02 -5.6377773955282D-01
   113  1.1200000000000D+00  3.8460369573439D-02 -5.7365838867385D-01
   114  1.1300000000000D+00  5.0734450058254D-02 -5.7664588067592D-01
   115  1.1400000000000D+00  6.0623323781863D-02 -5.7301850661273D-01
   116  1.1500000000000D+00  6.8187949776123D-02 -5.6313368193537D-01
   117  1.1600000000000D+00  7.3519998714847D-02 -5.4742401373814D-01
   118  1.1700000000000D+00  7.6740154353189D-02 -5.2639247990265D-01
   119  1.1800000000000D+00  7.7996089067977D-02 -5.0060680236923D-01
   120  1.1900000000000D+00  7.7460061669768D-02 -4.7069284382727D-01
   121  1.2000000000000D+00  7.5326557245555D-02 -4.3732826562615D-01
   122  1.2100000000000D+00  7.1809367951572D-02 -4.0123461929667D-01
   123  1.2200000000000D+00  6.7135980420454D-02 -3.6316126379135D-01
   124  1.2300000000000D+00  6.1541473772422D-02 -3.2386825194147D-01
   125  1.2400000000000D+00  5.5262910566651D-02 -2.8411101521275D-01
   126  1.2500000000000D+00  4.8535932721664D-02 -2.4463195772656D-01
   127  1.2600000000000D+00  4.1590834217466D-02 -2.0615040236543D-01
   128  1.2700000000000D+00  3.4648841950100D-02 -1.6935313727819D-01
   129  1.2800000000000D+00  2.7918541385387D-02 -1.3488533514074D-01
   130  1.2900000000000D+00  2.1592529000157D-02 -1.0334206428580D-01
   131  1.3000000000000D+00  1.5844324650014D-02 -7.5260465764175D-02
   132  1.3100000000000D+00  1.0826995421082D-02 -5.1119254406683D-02
   133  1.3200000000000D+00  6.6657735235702D-03 -3.1309499018417D-02
   134  1.3300000000000D+00  3.4410414277464D-03 -1.6061602829957D-02
   135  1.3400000000000D+00  1.2960956218717D-03 -5.9392953081816D-03
   136  1.3500000000000D+00  2.6054451088441D-04 -1.0368603207412D-03
   137  1.3600000000000D+00 -3.2621561873537D-05  2.8493429648001D-04
   138  1.3700000000000D+00 -8.9093893646802D-06  5.4742912038354D-05
   139  1.3800000000000D+00  1.6477777671467D-05 -9.6071543977958D-05
   140  1.3900000000000D+00 -1.2613158278933D-06  8.0242441186286D-06
   141  1.4000000000000D+00 -2.0277581276669D-06  1.2538138586161D-05
   142  1.4100000000000D+00 -1.2404543602138D-07  1.2636104074803D-07
   143  1.4200000000000D+00 -3.1482171993986D-08  3.2069862026064D-08
   144  1.4300000000000D+00  0.0000000000000D+00  0.0000000000000D+00
   145  1.4400000000000D+00  0.0000000000000D+00  0.0000000000000D+00
   146  1.4500000000000D+00  0.0000000000000D+00  0.0000000000000D+00
   147  1.4600000000000D+00  0.0000000000000D+00  0.0000000000000D+00
   148  1.4700000000000D+00  0.0000000000000D+00  0.0000000000000D+00
   149  1.4800000000000D+00  0.0000000000000D+00  0.0000000000000D+00
   150  1.4900000000000D+00  0.0000000000000D+00  0.0000000000000D+00
   151  1.5000000000000D+00  0.0000000000000D+00  0.0000000000000D+00
   152  1.5100000000000D+00  0.0000000000000D+00  0.0000000000000D+00
   153  1.5200000000000D+00  0.0000000000000D+00  0.0000000000000D+00
   154  1.5300000000000D+00  0.0000000000000D+00  0.0000000000000D+00
   155  1.5400000000000D+00  0.0000000000000D+00  0.0000000000000D+00
   156  1.5500000000000D+00  0.0000000000000D+00  0.0000000000000D+00
   157  1.5600000000000D+00  0.0000000000000D+00  0.0000000000000D+00
   158  1.5700000000000D+00  0.0000000000000D+00  0.0000000000000D+00
   159  1.5800000000000D+00  0.0000000000000D+00  0.0000000000000D+00
   160  1.5900000000000D+00  0.0000000000000D+00  0.0000000000000D+00
   161  1.6000000000000D+00  0.0000000000000D+00  0.0000000000000D+00
   162  1.6100000000000D+00  0.0000000000000D+00  0.0000000000000D+00
   163  1.6200000000000D+00  0.0000000000000D+00  0.0000000000000D+00
   164  1.6300000000000D+00  0.0000000000000D+00  0.0000000000000D+00
   165  1.6400000000000D+00  0.0000000000000D+00  0.0000000000000D+00
   166  1.6500000000000D+00  0.0000000000000D+00  0.0000000000000D+00
   167  1.6600000000000D+00  0.0000000000000D+00  0.0000000000000D+00
   168  1.6700000000000D+00  0.0000000000000D+00  0.0000000000000D+00
   169  1.6800000000000D+00  0.0000000000000D+00  0.0000000000000D+00
   170  1.6900000000000D+00  0.0000000000000D+00  0.0000000000000D+00
   171  1.7000000000000D+00  0.0000000000000D+00  0.0000000000000D+00
   172  1.7100000000000D+00  0.0000000000000D+00  0.0000000000000D+00
   173  1.7200000000000D+00  0.0000000000000D+00  0.0000000000000D+00
   174  1.7300000000000D+00  0.0000000000000D+00  0.0000000000000D+00
   175  1.7400000000000D+00  0.0000000000000D+00  0.0000000000000D+00
   176  1.7500000000000D+00  0.0000000000000D+00  0.0000000000000D+00
   177  1.7600000000000D+00  0.0000000000000D+00  0.0000000000000D+00
   178  1.7700000000000D+00  0.0000000000000D+00  0.0000000000000D+00
   179  1.7800000000000D+00  0.0000000000000D+00  0.0000000000000D+00
   180  1.7900000000000D+00  0.0000000000000D+00  0.0000000000000D+00
   181  1.8000000000000D+00  0.0000000000000D+00  0.0000000000000D+00
   182  1.8100000000000D+00  0.0000000000000D+00  0.0000000000000D+00
   183  1.8200000000000D+00  0.0000000000000D+00  0.0000000000000D+00
   184  1.8300000000000D+00  0.0000000000000D+00  0.0000000000000D+00
   185  1.8400000000000D+00  0.0000000000000D+00  0.0000000000000D+00
   186  1.8500000000000D+00  0.0000000000000D+00  0.0000000000000D+00
   187  1.8600000000000D+00  0.0000000000000D+00  0.0000000000000D+00
   188  1.8700000000000D+00  0.0000000000000D+00  0.0000000000000D+00
   189  1.8800000000000D+00  0.0000000000000D+00  0.0000000000000D+00
   190  1.8900000000000D+00  0.0000000000000D+00  0.0000000000000D+00
   191  1.9000000000000D+00  0.0000000000000D+00  0.0000000000000D+00
   192  1.9100000000000D+00  0.0000000000000D+00  0.0000000000000D+00
   193  1.9200000000000D+00  0.0000000000000D+00  0.0000000000000D+00
   194  1.9300000000000D+00  0.0000000000000D+00  0.0000000000000D+00
   195  1.9400000000000D+00  0.0000000000000D+00  0.0000000000000D+00
   196  1.9500000000000D+00  0.0000000000000D+00  0.0000000000000D+00
   197  1.9600000000000D+00  0.0000000000000D+00  0.0000000000000D+00
   198  1.9700000000000D+00  0.0000000000000D+00  0.0000000000000D+00
   199  1.9800000000000D+00  0.0000000000000D+00  0.0000000000000D+00
   200  1.9900000000000D+00  0.0000000000000D+00  0.0000000000000D+00
   201  2.0000000000000D+00  0.0000000000000D+00  0.0000000000000D+00
   202  2.0100000000000D+00  0.0000000000000D+00  0.0000000000000D+00
   203  2.0200000000000D+00  0.0000000000000D+00  0.0000000000000D+00
   204  2.0300000000000D+00  0.0000000000000D+00  0.0000000000000D+00
   205  2.0400000000000D+00  0.0000000000000D+00  0.0000000000000D+00
   206  2.0500000000000D+00  0.0000000000000D+00  0.0000000000000D+00
   207  2.0600000000000D+00  0.0000000000000D+00  0.0000000000000D+00
   208  2.0700000000000D+00  0.0000000000000D+00  0.0000000000000D+00
   209  2.0800000000000D+00  0.0000000000000D+00  0.0000000000000D+00
   210  2.0900000000000D+00  0.0000000000000D+00  0.0000000000000D+00
   211  2.1000000000000D+00  0.0000000000000D+00  0.0000000000000D+00
   212  2.1100000000000D+00  0.0000000000000D+00  0.0000000000000D+00
   213  2.1200000000000D+00  0.0000000000000D+00  0.0000000000000D+00
   214  2.1300000000000D+00  0.0000000000000D+00  0.0000000000000D+00
   215  2.1400000000000D+00  0.0000000000000D+00  0.0000000000000D+00
   216  2.1500000000000D+00  0.0000000000000D+00  0.0000000000000D+00
   217  2.1600000000000D+00  0.0000000000000D+00  0.0000000000000D+00
   218  2.1700000000000D+00  0.0000000000000D+00  0.0000000000000D+00
   219  2.1800000000000D+00  0.0000000000000D+00  0.0000000000000D+00
   220  2.1900000000000D+00  0.0000000000000D+00  0.0000000000000D+00
   221  2.2000000000000D+00  0.0000000000000D+00  0.0000000000000D+00
   222  2.2100000000000D+00  0.0000000000000D+00  0.0000000000000D+00
   223  2.2200000000000D+00  0.0000000000000D+00  0.0000000000000D+00
   224  2.2300000000000D+00  0.0000000000000D+00  0.0000000000000D+00
   225  2.2400000000000D+00  0.0000000000000D+00  0.0000000000000D+00
   226  2.2500000000000D+00  0.0000000000000D+00  0.0000000000000D+00
   227  2.2600000000000D+00  0.0000000000000D+00  0.0000000000000D+00
   228  2.2700000000000D+00  0.0000000000000D+00  0.0000000000000D+00
   229  2.2800000000000D+00  0.0000000000000D+00  0.0000000000000D+00
   230  2.2900000000000D+00  0.0000000000000D+00  0.0000000000000D+00
   231  2.3000000000000D+00  0.0000000000000D+00  0.0000000000000D+00
   232  2.3100000000000D+00  0.0000000000000D+00  0.0000000000000D+00
   233  2.3200000000000D+00  0.0000000000000D+00  0.0000000000000D+00
   234  2.3300000000000D+00  0.0000000000000D+00  0.0000000000000D+00
   235  2.3400000000000D+00  0.0000000000000D+00  0.0000000000000D+00
   236  2.3500000000000D+00  0.0000000000000D+00  0.0000000000000D+00
   237  2.3600000000000D+00  0.0000000000000D+00  0.0000000000000D+00
   238  2.3700000000000D+00  0.0000000000000D+00  0.0000000000000D+00
   239  2.3800000000000D+00  0.0000000000000D+00  0.0000000000000D+00
   240  2.3900000000000D+00  0.0000000000000D+00  0.0000000000000D+00
   241  2.4000000000000D+00  0.0000000000000D+00  0.0000000000000D+00
   242  2.4100000000000D+00  0.0000000000000D+00  0.0000000000000D+00
   243  2.4200000000000D+00  0.0000000000000D+00  0.0000000000000D+00
   244  2.4300000000000D+00  0.0000000000000D+00  0.0000000000000D+00
   245  2.4400000000000D+00  0.0000000000000D+00  0.0000000000000D+00
   246  2.4500000000000D+00  0.0000000000000D+00  0.0000000000000D+00
   247  2.4600000000000D+00  0.0000000000000D+00  0.0000000000000D+00
   248  2.4700000000000D+00  0.0000000000000D+00  0.0000000000000D+00
   249  2.4800000000000D+00  0.0000000000000D+00  0.0000000000000D+00
   250  2.4900000000000D+00  0.0000000000000D+00  0.0000000000000D+00
   251  2.5000000000000D+00  0.0000000000000D+00  0.0000000000000D+00
   252  2.5100000000000D+00  0.0000000000000D+00  0.0000000000000D+00
   253  2.5200000000000D+00  0.0000000000000D+00  0.0000000000000D+00
   254  2.5300000000000D+00  0.0000000000000D+00  0.0000000000000D+00
   255  2.5400000000000D+00  0.0000000000000D+00  0.0000000000000D+00
   256  2.5500000000000D+00  0.0000000000000D+00  0.0000000000000D+00
   257  2.5600000000000D+00  0.0000000000000D+00  0.0000000000000D+00
   258  2.5700000000000D+00  0.0000000000000D+00  0.0000000000000D+00
   259  2.5800000000000D+00  0.0000000000000D+00  0.0000000000000D+00
   260  2.5900000000000D+00  0.0000000000000D+00  0.0000000000000D+00
   261  2.6000000000000D+00  0.0000000000000D+00  0.0000000000000D+00
   262  2.6100000000000D+00  0.0000000000000D+00  0.0000000000000D+00
   263  2.6200000000000D+00  0.0000000000000D+00  0.0000000000000D+00
   264  2.6300000000000D+00  0.0000000000000D+00  0.0000000000000D+00
   265  2.6400000000000D+00  0.0000000000000D+00  0.0000000000000D+00
   266  2.6500000000000D+00  0.0000000000000D+00  0.0000000000000D+00
   267  2.6600000000000D+00  0.0000000000000D+00  0.0000000000000D+00
   268  2.6700000000000D+00  0.0000000000000D+00  0.0000000000000D+00
   269  2.6800000000000D+00  0.0000000000000D+00  0.0000000000000D+00
   270  2.6900000000000D+00  0.0000000000000D+00  0.0000000000000D+00
   271  2.7000000000000D+00  0.0000000000000D+00  0.0000000000000D+00
   272  2.7100000000000D+00  0.0000000000000D+00  0.0000000000000D+00
   273  2.7200000000000D+00  0.0000000000000D+00  0.0000000000000D+00
   274  2.7300000000000D+00  0.0000000000000D+00  0.0000000000000D+00
   275  2.7400000000000D+00  0.0000000000000D+00  0.0000000000000D+00
   276  2.7500000000000D+00  0.0000000000000D+00  0.0000000000000D+00
   277  2.7600000000000D+00  0.0000000000000D+00  0.0000000000000D+00
   278  2.7700000000000D+00  0.0000000000000D+00  0.0000000000000D+00
   279  2.7800000000000D+00  0.0000000000000D+00  0.0000000000000D+00
   280  2.7900000000000D+00  0.0000000000000D+00  0.0000000000000D+00
   281  2.8000000000000D+00  0.0000000000000D+00  0.0000000000000D+00
   282  2.8100000000000D+00  0.0000000000000D+00  0.0000000000000D+00
   283  2.8200000000000D+00  0.0000000000000D+00  0.0000000000000D+00
   284  2.8300000000000D+00  0.0000000000000D+00  0.0000000000000D+00
   285  2.8400000000000D+00  0.0000000000000D+00  0.0000000000000D+00
   286  2.8500000000000D+00  0.0000000000000D+00  0.0000000000000D+00
   287  2.8600000000000D+00  0.0000000000000D+00  0.0000000000000D+00
   288  2.8700000000000D+00  0.0000000000000D+00  0.0000000000000D+00
   289  2.8800000000000D+00  0.0000000000000D+00  0.0000000000000D+00
   290  2.8900000000000D+00  0.0000000000000D+00  0.0000000000000D+00
   291  2.9000000000000D+00  0.0000000000000D+00  0.0000000000000D+00
   292  2.9100000000000D+00  0.0000000000000D+00  0.0000000000000D+00
   293  2.9200000000000D+00  0.0000000000000D+00  0.0000000000000D+00
   294  2.9300000000000D+00  0.0000000000000D+00  0.0000000000000D+00
   295  2.9400000000000D+00  0.0000000000000D+00  0.0000000000000D+00
   296  2.9500000000000D+00  0.0000000000000D+00  0.0000000000000D+00
   297  2.9600000000000D+00  0.0000000000000D+00  0.0000000000000D+00
   298  2.9700000000000D+00  0.0000000000000D+00  0.0000000000000D+00
   299  2.9800000000000D+00  0.0000000000000D+00  0.0000000000000D+00
   300  2.9900000000000D+00  0.0000000000000D+00  0.0000000000000D+00
   301  3.0000000000000D+00  0.0000000000000D+00  0.0000000000000D+00
   302  3.0100000000000D+00  0.0000000000000D+00  0.0000000000000D+00
   303  3.0200000000000D+00  0.0000000000000D+00  0.0000000000000D+00
   304  3.0300000000000D+00  0.0000000000000D+00  0.0000000000000D+00
   305  3.0400000000000D+00  0.0000000000000D+00  0.0000000000000D+00
   306  3.0500000000000D+00  0.0000000000000D+00  0.0000000000000D+00
   307  3.0600000000000D+00  0.0000000000000D+00  0.0000000000000D+00
   308  3.0700000000000D+00  0.0000000000000D+00  0.0000000000000D+00
   309  3.0800000000000D+00  0.0000000000000D+00  0.0000000000000D+00
   310  3.0900000000000D+00  0.0000000000000D+00  0.0000000000000D+00
   311  3.1000000000000D+00  0.0000000000000D+00  0.0000000000000D+00
   312  3.1100000000000D+00  0.0000000000000D+00  0.0000000000000D+00
   313  3.1200000000000D+00  0.0000000000000D+00  0.0000000000000D+00
   314  3.1300000000000D+00  0.0000000000000D+00  0.0000000000000D+00
   315  3.1400000000000D+00  0.0000000000000D+00  0.0000000000000D+00
   316  3.1500000000000D+00  0.0000000000000D+00  0.0000000000000D+00
   317  3.1600000000000D+00  0.0000000000000D+00  0.0000000000000D+00
   318  3.1700000000000D+00  0.0000000000000D+00  0.0000000000000D+00
   319  3.1800000000000D+00  0.0000000000000D+00  0.0000000000000D+00
   320  3.1900000000000D+00  0.0000000000000D+00  0.0000000000000D+00
   321  3.2000000000000D+00  0.0000000000000D+00  0.0000000000000D+00
   322  3.2100000000000D+00  0.0000000000000D+00  0.0000000000000D+00
   323  3.2200000000000D+00  0.0000000000000D+00  0.0000000000000D+00
   324  3.2300000000000D+00  0.0000000000000D+00  0.0000000000000D+00
   325  3.2400000000000D+00  0.0000000000000D+00  0.0000000000000D+00
   326  3.2500000000000D+00  0.0000000000000D+00  0.0000000000000D+00
   327  3.2600000000000D+00  0.0000000000000D+00  0.0000000000000D+00
   328  3.2700000000000D+00  0.0000000000000D+00  0.0000000000000D+00
   329  3.2800000000000D+00  0.0000000000000D+00  0.0000000000000D+00
   330  3.2900000000000D+00  0.0000000000000D+00  0.0000000000000D+00
   331  3.3000000000000D+00  0.0000000000000D+00  0.0000000000000D+00
   332  3.3100000000000D+00  0.0000000000000D+00  0.0000000000000D+00
   333  3.3200000000000D+00  0.0000000000000D+00  0.0000000000000D+00
   334  3.3300000000000D+00  0.0000000000000D+00  0.0000000000000D+00
   335  3.3400000000000D+00  0.0000000000000D+00  0.0000000000000D+00
   336  3.3500000000000D+00  0.0000000000000D+00  0.0000000000000D+00
   337  3.3600000000000D+00  0.0000000000000D+00  0.0000000000000D+00
   338  3.3700000000000D+00  0.0000000000000D+00  0.0000000000000D+00
   339  3.3800000000000D+00  0.0000000000000D+00  0.0000000000000D+00
   340  3.3900000000000D+00  0.0000000000000D+00  0.0000000000000D+00
   341  3.4000000000000D+00  0.0000000000000D+00  0.0000000000000D+00
   342  3.4100000000000D+00  0.0000000000000D+00  0.0000000000000D+00
   343  3.4200000000000D+00  0.0000000000000D+00  0.0000000000000D+00
   344  3.4300000000000D+00  0.0000000000000D+00  0.0000000000000D+00
   345  3.4400000000000D+00  0.0000000000000D+00  0.0000000000000D+00
   346  3.4500000000000D+00  0.0000000000000D+00  0.0000000000000D+00
   347  3.4600000000000D+00  0.0000000000000D+00  0.0000000000000D+00
   348  3.4700000000000D+00  0.0000000000000D+00  0.0000000000000D+00
   349  3.4800000000000D+00  0.0000000000000D+00  0.0000000000000D+00
   350  3.4900000000000D+00  0.0000000000000D+00  0.0000000000000D+00
   351  3.5000000000000D+00  0.0000000000000D+00  0.0000000000000D+00
   352  3.5100000000000D+00  0.0000000000000D+00  0.0000000000000D+00
   353  3.5200000000000D+00  0.0000000000000D+00  0.0000000000000D+00
   354  3.5300000000000D+00  0.0000000000000D+00  0.0000000000000D+00
   355  3.5400000000000D+00  0.0000000000000D+00  0.0000000000000D+00
   356  3.5500000000000D+00  0.0000000000000D+00  0.0000000000000D+00
   357  3.5600000000000D+00  0.0000000000000D+00  0.0000000000000D+00
   358  3.5700000000000D+00  0.0000000000000D+00  0.0000000000000D+00
   359  3.5800000000000D+00  0.0000000000000D+00  0.0000000000000D+00
   360  3.5900000000000D+00  0.0000000000000D+00  0.0000000000000D+00
   361  3.6000000000000D+00  0.0000000000000D+00  0.0000000000000D+00
   362  3.6100000000000D+00  0.0000000000000D+00  0.0000000000000D+00
   363  3.6200000000000D+00  0.0000000000000D+00  0.0000000000000D+00
   364  3.6300000000000D+00  0.0000000000000D+00  0.0000000000000D+00
   365  3.6400000000000D+00  0.0000000000000D+00  0.0000000000000D+00
   366  3.6500000000000D+00  0.0000000000000D+00  0.0000000000000D+00
   367  3.6600000000000D+00  0.0000000000000D+00  0.0000000000000D+00
   368  3.6700000000000D+00  0.0000000000000D+00  0.0000000000000D+00
   369  3.6800000000000D+00  0.0000000000000D+00  0.0000000000000D+00
   370  3.6900000000000D+00  0.0000000000000D+00  0.0000000000000D+00
   371  3.7000000000000D+00  0.0000000000000D+00  0.0000000000000D+00
   372  3.7100000000000D+00  0.0000000000000D+00  0.0000000000000D+00
   373  3.7200000000000D+00  0.0000000000000D+00  0.0000000000000D+00
   374  3.7300000000000D+00  0.0000000000000D+00  0.0000000000000D+00
   375  3.7400000000000D+00  0.0000000000000D+00  0.0000000000000D+00
   376  3.7500000000000D+00  0.0000000000000D+00  0.0000000000000D+00
   377  3.7600000000000D+00  0.0000000000000D+00  0.0000000000000D+00
   378  3.7700000000000D+00  0.0000000000000D+00  0.0000000000000D+00
   379  3.7800000000000D+00  0.0000000000000D+00  0.0000000000000D+00
   380  3.7900000000000D+00  0.0000000000000D+00  0.0000000000000D+00
   381  3.8000000000000D+00  0.0000000000000D+00  0.0000000000000D+00
   382  3.8100000000000D+00  0.0000000000000D+00  0.0000000000000D+00
   383  3.8200000000000D+00  0.0000000000000D+00  0.0000000000000D+00
   384  3.8300000000000D+00  0.0000000000000D+00  0.0000000000000D+00
   385  3.8400000000000D+00  0.0000000000000D+00  0.0000000000000D+00
   386  3.8500000000000D+00  0.0000000000000D+00  0.0000000000000D+00
   387  3.8600000000000D+00  0.0000000000000D+00  0.0000000000000D+00
   388  3.8700000000000D+00  0.0000000000000D+00  0.0000000000000D+00
   389  3.8800000000000D+00  0.0000000000000D+00  0.0000000000000D+00
   390  3.8900000000000D+00  0.0000000000000D+00  0.0000000000000D+00
   391  3.9000000000000D+00  0.0000000000000D+00  0.0000000000000D+00
   392  3.9100000000000D+00  0.0000000000000D+00  0.0000000000000D+00
   393  3.9200000000000D+00  0.0000000000000D+00  0.0000000000000D+00
   394  3.9300000000000D+00  0.0000000000000D+00  0.0000000000000D+00
   395  3.9400000000000D+00  0.0000000000000D+00  0.0000000000000D+00
   396  3.9500000000000D+00  0.0000000000000D+00  0.0000000000000D+00
   397  3.9600000000000D+00  0.0000000000000D+00  0.0000000000000D+00
   398  3.9700000000000D+00  0.0000000000000D+00  0.0000000000000D+00
   399  3.9800000000000D+00  0.0000000000000D+00  0.0000000000000D+00
   400  3.9900000000000D+00  0.0000000000000D+00  0.0000000000000D+00
   401  4.0000000000000D+00  0.0000000000000D+00  0.0000000000000D+00
   402  4.0100000000000D+00  0.0000000000000D+00  0.0000000000000D+00
   403  4.0200000000000D+00  0.0000000000000D+00  0.0000000000000D+00
   404  4.0300000000000D+00  0.0000000000000D+00  0.0000000000000D+00
   405  4.0400000000000D+00  0.0000000000000D+00  0.0000000000000D+00
   406  4.0500000000000D+00  0.0000000000000D+00  0.0000000000000D+00
   407  4.0600000000000D+00  0.0000000000000D+00  0.0000000000000D+00
   408  4.0700000000000D+00  0.0000000000000D+00  0.0000000000000D+00
   409  4.0800000000000D+00  0.0000000000000D+00  0.0000000000000D+00
   410  4.0900000000000D+00  0.0000000000000D+00  0.0000000000000D+00
   411  4.1000000000000D+00  0.0000000000000D+00  0.0000000000000D+00
   412  4.1100000000000D+00  0.0000000000000D+00  0.0000000000000D+00
   413  4.1200000000000D+00  0.0000000000000D+00  0.0000000000000D+00
   414  4.1300000000000D+00  0.0000000000000D+00  0.0000000000000D+00
   415  4.1400000000000D+00  0.0000000000000D+00  0.0000000000000D+00
   416  4.1500000000000D+00  0.0000000000000D+00  0.0000000000000D+00
   417  4.1600000000000D+00  0.0000000000000D+00  0.0000000000000D+00
   418  4.1700000000000D+00  0.0000000000000D+00  0.0000000000000D+00
   419  4.1800000000000D+00  0.0000000000000D+00  0.0000000000000D+00
   420  4.1900000000000D+00  0.0000000000000D+00  0.0000000000000D+00
   421  4.2000000000000D+00  0.0000000000000D+00  0.0000000000000D+00
   422  4.2100000000000D+00  0.0000000000000D+00  0.0000000000000D+00