<UPF version="2.0.1">
  <PP_INFO>

 This pseudopotential file has been produced using the code
 ONCVPSP  (Optimized Norm-Conservinng Vanderbilt PSeudopotential)
 scalar-relativistic version 3.3.0 08/16/2017 by D. R. Hamann
 The code is available through a link at URL www.mat-simresearch.com.
 Documentation with the package provides a full discription of the
 input data below.


 While it is not required under the terms of the GNU GPL, it is
 suggested that you cite D. R. Hamann, Phys. Rev. B 88, 085117 (2013)
 in any publication using these pseudopotentials.

    <PP_INPUTFILE>
# ATOM AND REFERENCE CONFIGURATION
# atsym  z   nc   nv     iexc    psfile
  O  8.00    1    2       4      both
#
#   n    l    f        energy (Ha)
    1    0    2.00
    2    0    2.00
    2    1    4.00
#
# PSEUDOPOTENTIAL AND OPTIMIZATION
# lmax
    2
#
#   l,   rc,      ep,       ncon, nbas, qcut
    0   1.35000  -0.88057    4    8   8.40000
    1   1.45000  -0.33187    4    8   9.30000
    2   1.25000   0.10000    4    8   6.00000
#
# LOCAL POTENTIAL
# lloc, lpopt,  rc(5),   dvloc0
    4    5   1.20000      0.00000
#
# VANDERBILT-KLEINMAN-BYLANDER PROJECTORs
# l, nproj, debl
    0    2   1.00000
    1    2   1.00000
    2    1   1.00000
#
# MODEL CORE CHARGE
# icmod, fcfact, rcfact
    0   0.00000   0.00000
#
# LOG DERIVATIVE ANALYSIS
# epsh1, epsh2, depsh
  -12.00   12.00    0.02
#
# OUTPUT GRID
# rlmax, drl
    6.00    0.01
#
# TEST CONFIGURATIONS
# ncnf
    0
# nvcnf
#   n    l    f
    </PP_INPUTFILE>
  </PP_INFO>
  <!--                               -->
  <!-- END OF HUMAN READABLE SECTION -->
  <!--                               -->
    <PP_HEADER
       generated="Generated using ONCVPSP code by D. R. Hamann"
       author="anonymous"
       date="220117"
       comment=""
       element="O "
       pseudo_type="NC"
       relativistic="scalar"
       is_ultrasoft="F"
       is_paw="F"
       is_coulomb="F"
       has_so="F"
       has_wfc="F"
       has_gipaw="F"
       core_correction="F"
       functional="PBE"
       z_valence="    6.00"
       total_psenergy="  -3.14255789102E+01"
       rho_cutoff="   9.35000000000E+00"
       l_max="2"
       l_local="-1"
       mesh_size="   936"
       number_of_wfc="2"
       number_of_proj="5"/>
 <PP_MESH>
   <PP_R type="real"  size=" 936" columns="8">
    0.0000    0.0100    0.0200    0.0300    0.0400    0.0500    0.0600    0.0700
    0.0800    0.0900    0.1000    0.1100    0.1200    0.1300    0.1400    0.1500
    0.1600    0.1700    0.1800    0.1900    0.2000    0.2100    0.2200    0.2300
    0.2400    0.2500    0.2600    0.2700    0.2800    0.2900    0.3000    0.3100
    0.3200    0.3300    0.3400    0.3500    0.3600    0.3700    0.3800    0.3900
    0.4000    0.4100    0.4200    0.4300    0.4400    0.4500    0.4600    0.4700
    0.4800    0.4900    0.5000    0.5100    0.5200    0.5300    0.5400    0.5500
    0.5600    0.5700    0.5800    0.5900    0.6000    0.6100    0.6200    0.6300
    0.6400    0.6500    0.6600    0.6700    0.6800    0.6900    0.7000    0.7100
    0.7200    0.7300    0.7400    0.7500    0.7600    0.7700    0.7800    0.7900
    0.8000    0.8100    0.8200    0.8300    0.8400    0.8500    0.8600    0.8700
    0.8800    0.8900    0.9000    0.9100    0.9200    0.9300    0.9400    0.9500
    0.9600    0.9700    0.9800    0.9900    1.0000    1.0100    1.0200    1.0300
    1.0400    1.0500    1.0600    1.0700    1.0800    1.0900    1.1000    1.1100
    1.1200    1.1300    1.1400    1.1500    1.1600    1.1700    1.1800    1.1900
    1.2000    1.2100    1.2200    1.2300    1.2400    1.2500    1.2600    1.2700
    1.2800    1.2900    1.3000    1.3100    1.3200    1.3300    1.3400    1.3500
    1.3600    1.3700    1.3800    1.3900    1.4000    1.4100    1.4200    1.4300
    1.4400    1.4500    1.4600    1.4700    1.4800    1.4900    1.5000    1.5100
    1.5200    1.5300    1.5400    1.5500    1.5600    1.5700    1.5800    1.5900
    1.6000    1.6100    1.6200    1.6300    1.6400    1.6500    1.6600    1.6700
    1.6800    1.6900    1.7000    1.7100    1.7200    1.7300    1.7400    1.7500
    1.7600    1.7700    1.7800    1.7900    1.8000    1.8100    1.8200    1.8300
    1.8400    1.8500    1.8600    1.8700    1.8800    1.8900    1.9000    1.9100
    1.9200    1.9300    1.9400    1.9500    1.9600    1.9700    1.9800    1.9900
    2.0000    2.0100    2.0200    2.0300    2.0400    2.0500    2.0600    2.0700
    2.0800    2.0900    2.1000    2.1100    2.1200    2.1300    2.1400    2.1500
    2.1600    2.1700    2.1800    2.1900    2.2000    2.2100    2.2200    2.2300
    2.2400    2.2500    2.2600    2.2700    2.2800    2.2900    2.3000    2.3100
    2.3200    2.3300    2.3400    2.3500    2.3600    2.3700    2.3800    2.3900
    2.4000    2.4100    2.4200    2.4300    2.4400    2.4500    2.4600    2.4700
    2.4800    2.4900    2.5000    2.5100    2.5200    2.5300    2.5400    2.5500
    2.5600    2.5700    2.5800    2.5900    2.6000    2.6100    2.6200    2.6300
    2.6400    2.6500    2.6600    2.6700    2.6800    2.6900    2.7000    2.7100
    2.7200    2.7300    2.7400    2.7500    2.7600    2.7700    2.7800    2.7900
    2.8000    2.8100    2.8200    2.8300    2.8400    2.8500    2.8600    2.8700
    2.8800    2.8900    2.9000    2.9100    2.9200    2.9300    2.9400    2.9500
    2.9600    2.9700    2.9800    2.9900    3.0000    3.0100    3.0200    3.0300
    3.0400    3.0500    3.0600    3.0700    3.0800    3.0900    3.1000    3.1100
    3.1200    3.1300    3.1400    3.1500    3.1600    3.1700    3.1800    3.1900
    3.2000    3.2100    3.2200    3.2300    3.2400    3.2500    3.2600    3.2700
    3.2800    3.2900    3.3000    3.3100    3.3200    3.3300    3.3400    3.3500
    3.3600    3.3700    3.3800    3.3900    3.4000    3.4100    3.4200    3.4300
    3.4400    3.4500    3.4600    3.4700    3.4800    3.4900    3.5000    3.5100
    3.5200    3.5300    3.5400    3.5500    3.5600    3.5700    3.5800    3.5900
    3.6000    3.6100    3.6200    3.6300    3.6400    3.6500    3.6600    3.6700
    3.6800    3.6900    3.7000    3.7100    3.7200    3.7300    3.7400    3.7500
    3.7600    3.7700    3.7800    3.7900    3.8000    3.8100    3.8200    3.8300
    3.8400    3.8500    3.8600    3.8700    3.8800    3.8900    3.9000    3.9100
    3.9200    3.9300    3.9400    3.9500    3.9600    3.9700    3.9800    3.9900
    4.0000    4.0100    4.0200    4.0300    4.0400    4.0500    4.0600    4.0700
    4.0800    4.0900    4.1000    4.1100    4.1200    4.1300    4.1400    4.1500
    4.1600    4.1700    4.1800    4.1900    4.2000    4.2100    4.2200    4.2300
    4.2400    4.2500    4.2600    4.2700    4.2800    4.2900    4.3000    4.3100
    4.3200    4.3300    4.3400    4.3500    4.3600    4.3700    4.3800    4.3900
    4.4000    4.4100    4.4200    4.4300    4.4400    4.4500    4.4600    4.4700
    4.4800    4.4900    4.5000    4.5100    4.5200    4.5300    4.5400    4.5500
    4.5600    4.5700    4.5800    4.5900    4.6000    4.6100    4.6200    4.6300
    4.6400    4.6500    4.6600    4.6700    4.6800    4.6900    4.7000    4.7100
    4.7200    4.7300    4.7400    4.7500    4.7600    4.7700    4.7800    4.7900
    4.8000    4.8100    4.8200    4.8300    4.8400    4.8500    4.8600    4.8700
    4.8800    4.8900    4.9000    4.9100    4.9200    4.9300    4.9400    4.9500
    4.9600    4.9700    4.9800    4.9900    5.0000    5.0100    5.0200    5.0300
    5.0400    5.0500    5.0600    5.0700    5.0800    5.0900    5.1000    5.1100
    5.1200    5.1300    5.1400    5.1500    5.1600    5.1700    5.1800    5.1900
    5.2000    5.2100    5.2200    5.2300    5.2400    5.2500    5.2600    5.2700
    5.2800    5.2900    5.3000    5.3100    5.3200    5.3300    5.3400    5.3500
    5.3600    5.3700    5.3800    5.3900    5.4000    5.4100    5.4200    5.4300
    5.4400    5.4500    5.4600    5.4700    5.4800    5.4900    5.5000    5.5100
    5.5200    5.5300    5.5400    5.5500    5.5600    5.5700    5.5800    5.5900
    5.6000    5.6100    5.6200    5.6300    5.6400    5.6500    5.6600    5.6700
    5.6800    5.6900    5.7000    5.7100    5.7200    5.7300    5.7400    5.7500
    5.7600    5.7700    5.7800    5.7900    5.8000    5.8100    5.8200    5.8300
    5.8400    5.8500    5.8600    5.8700    5.8800    5.8900    5.9000    5.9100
    5.9200    5.9300    5.9400    5.9500    5.9600    5.9700    5.9800    5.9900
    6.0000    6.0100    6.0200    6.0300    6.0400    6.0500    6.0600    6.0700
    6.0800    6.0900    6.1000    6.1100    6.1200    6.1300    6.1400    6.1500
    6.1600    6.1700    6.1800    6.1900    6.2000    6.2100    6.2200    6.2300
    6.2400    6.2500    6.2600    6.2700    6.2800    6.2900    6.3000    6.3100
    6.3200    6.3300    6.3400    6.3500    6.3600    6.3700    6.3800    6.3900
    6.4000    6.4100    6.4200    6.4300    6.4400    6.4500    6.4600    6.4700
    6.4800    6.4900    6.5000    6.5100    6.5200    6.5300    6.5400    6.5500
    6.5600    6.5700    6.5800    6.5900    6.6000    6.6100    6.6200    6.6300
    6.6400    6.6500    6.6600    6.6700    6.6800    6.6900    6.7000    6.7100
    6.7200    6.7300    6.7400    6.7500    6.7600    6.7700    6.7800    6.7900
    6.8000    6.8100    6.8200    6.8300    6.8400    6.8500    6.8600    6.8700
    6.8800    6.8900    6.9000    6.9100    6.9200    6.9300    6.9400    6.9500
    6.9600    6.9700    6.9800    6.9900    7.0000    7.0100    7.0200    7.0300
    7.0400    7.0500    7.0600    7.0700    7.0800    7.0900    7.1000    7.1100
    7.1200    7.1300    7.1400    7.1500    7.1600    7.1700    7.1800    7.1900
    7.2000    7.2100    7.2200    7.2300    7.2400    7.2500    7.2600    7.2700
    7.2800    7.2900    7.3000    7.3100    7.3200    7.3300    7.3400    7.3500
    7.3600    7.3700    7.3800    7.3900    7.4000    7.4100    7.4200    7.4300
    7.4400    7.4500    7.4600    7.4700    7.4800    7.4900    7.5000    7.5100
    7.5200    7.5300    7.5400    7.5500    7.5600    7.5700    7.5800    7.5900
    7.6000    7.6100    7.6200    7.6300    7.6400    7.6500    7.6600    7.6700
    7.6800    7.6900    7.7000    7.7100    7.7200    7.7300    7.7400    7.7500
    7.7600    7.7700    7.7800    7.7900    7.8000    7.8100    7.8200    7.8300
    7.8400    7.8500    7.8600    7.8700    7.8800    7.8900    7.9000    7.9100
    7.9200    7.9300    7.9400    7.9500    7.9600    7.9700    7.9800    7.9900
    8.0000    8.0100    8.0200    8.0300    8.0400    8.0500    8.0600    8.0700
    8.0800    8.0900    8.1000    8.1100    8.1200    8.1300    8.1400    8.1500
    8.1600    8.1700    8.1800    8.1900    8.2000    8.2100    8.2200    8.2300
    8.2400    8.2500    8.2600    8.2700    8.2800    8.2900    8.3000    8.3100
    8.3200    8.3300    8.3400    8.3500    8.3600    8.3700    8.3800    8.3900
    8.4000    8.4100    8.4200    8.4300    8.4400    8.4500    8.4600    8.4700
    8.4800    8.4900    8.5000    8.5100    8.5200    8.5300    8.5400    8.5500
    8.5600    8.5700    8.5800    8.5900    8.6000    8.6100    8.6200    8.6300
    8.6400    8.6500    8.6600    8.6700    8.6800    8.6900    8.7000    8.7100
    8.7200    8.7300    8.7400    8.7500    8.7600    8.7700    8.7800    8.7900
    8.8000    8.8100    8.8200    8.8300    8.8400    8.8500    8.8600    8.8700
    8.8800    8.8900    8.9000    8.9100    8.9200    8.9300    8.9400    8.9500
    8.9600    8.9700    8.9800    8.9900    9.0000    9.0100    9.0200    9.0300
    9.0400    9.0500    9.0600    9.0700    9.0800    9.0900    9.1000    9.1100
    9.1200    9.1300    9.1400    9.1500    9.1600    9.1700    9.1800    9.1900
    9.2000    9.2100    9.2200    9.2300    9.2400    9.2500    9.2600    9.2700
    9.2800    9.2900    9.3000    9.3100    9.3200    9.3300    9.3400    9.3500
   </PP_R>
   <PP_RAB type="real"  size=" 936" columns="8">
    0.0100    0.0100    0.0100    0.0100    0.0100    0.0100    0.0100    0.0100
    0.0100    0.0100    0.0100    0.0100    0.0100    0.0100    0.0100    0.0100
    0.0100    0.0100    0.0100    0.0100    0.0100    0.0100    0.0100    0.0100
    0.0100    0.0100    0.0100    0.0100    0.0100    0.0100    0.0100    0.0100
    0.0100    0.0100    0.0100    0.0100    0.0100    0.0100    0.0100    0.0100
    0.0100    0.0100    0.0100    0.0100    0.0100    0.0100    0.0100    0.0100
    0.0100    0.0100    0.0100    0.0100    0.0100    0.0100    0.0100    0.0100
    0.0100    0.0100    0.0100    0.0100    0.0100    0.0100    0.0100    0.0100
    0.0100    0.0100    0.0100    0.0100    0.0100    0.0100    0.0100    0.0100
    0.0100    0.0100    0.0100    0.0100    0.0100    0.0100    0.0100    0.0100
    0.0100    0.0100    0.0100    0.0100    0.0100    0.0100    0.0100    0.0100
    0.0100    0.0100    0.0100    0.0100    0.0100    0.0100    0.0100    0.0100
    0.0100    0.0100    0.0100    0.0100    0.0100    0.0100    0.0100    0.0100
    0.0100    0.0100    0.0100    0.0100    0.0100    0.0100    0.0100    0.0100
    0.0100    0.0100    0.0100    0.0100    0.0100    0.0100    0.0100    0.0100
    0.0100    0.0100    0.0100    0.0100    0.0100    0.0100    0.0100    0.0100
    0.0100    0.0100    0.0100    0.0100    0.0100    0.0100    0.0100    0.0100
    0.0100    0.0100    0.0100    0.0100    0.0100    0.0100    0.0100    0.0100
    0.0100    0.0100    0.0100    0.0100    0.0100    0.0100    0.0100    0.0100
    0.0100    0.0100    0.0100    0.0100    0.0100    0.0100    0.0100    0.0100
    0.0100    0.0100    0.0100    0.0100    0.0100    0.0100    0.0100    0.0100
    0.0100    0.0100    0.0100    0.0100    0.0100    0.0100    0.0100    0.0100
    0.0100    0.0100    0.0100    0.0100    0.0100    0.0100    0.0100    0.0100
    0.0100    0.0100    0.0100    0.0100    0.0100    0.0100    0.0100    0.0100
    0.0100    0.0100    0.0100    0.0100    0.0100    0.0100    0.0100    0.0100
    0.0100    0.0100    0.0100    0.0100    0.0100    0.0100    0.0100    0.0100
    0.0100    0.0100    0.0100    0.0100    0.0100    0.0100    0.0100    0.0100
    0.0100    0.0100    0.0100    0.0100    0.0100    0.0100    0.0100    0.0100
    0.0100    0.0100    0.0100    0.0100    0.0100    0.0100    0.0100    0.0100
    0.0100    0.0100    0.0100    0.0100    0.0100    0.0100    0.0100    0.0100
    0.0100    0.0100    0.0100    0.0100    0.0100    0.0100    0.0100    0.0100
    0.0100    0.0100    0.0100    0.0100    0.0100    0.0100    0.0100    0.0100
    0.0100    0.0100    0.0100    0.0100    0.0100    0.0100    0.0100    0.0100
    0.0100    0.0100    0.0100    0.0100    0.0100    0.0100    0.0100    0.0100
    0.0100    0.0100    0.0100    0.0100    0.0100    0.0100    0.0100    0.0100
    0.0100    0.0100    0.0100    0.0100    0.0100    0.0100    0.0100    0.0100
    0.0100    0.0100    0.0100    0.0100    0.0100    0.0100    0.0100    0.0100
    0.0100    0.0100    0.0100    0.0100    0.0100    0.0100    0.0100    0.0100
    0.0100    0.0100    0.0100    0.0100    0.0100    0.0100    0.0100    0.0100
    0.0100    0.0100    0.0100    0.0100    0.0100    0.0100    0.0100    0.0100
    0.0100    0.0100    0.0100    0.0100    0.0100    0.0100    0.0100    0.0100
    0.0100    0.0100    0.0100    0.0100    0.0100    0.0100    0.0100    0.0100
    0.0100    0.0100    0.0100    0.0100    0.0100    0.0100    0.0100    0.0100
    0.0100    0.0100    0.0100    0.0100    0.0100    0.0100    0.0100    0.0100
    0.0100    0.0100    0.0100    0.0100    0.0100    0.0100    0.0100    0.0100
    0.0100    0.0100    0.0100    0.0100    0.0100    0.0100    0.0100    0.0100
    0.0100    0.0100    0.0100    0.0100    0.0100    0.0100    0.0100    0.0100
    0.0100    0.0100    0.0100    0.0100    0.0100    0.0100    0.0100    0.0100
    0.0100    0.0100    0.0100    0.0100    0.0100    0.0100    0.0100    0.0100
    0.0100    0.0100    0.0100    0.0100    0.0100    0.0100    0.0100    0.0100
    0.0100    0.0100    0.0100    0.0100    0.0100    0.0100    0.0100    0.0100
    0.0100    0.0100    0.0100    0.0100    0.0100    0.0100    0.0100    0.0100
    0.0100    0.0100    0.0100    0.0100    0.0100    0.0100    0.0100    0.0100
    0.0100    0.0100    0.0100    0.0100    0.0100    0.0100    0.0100    0.0100
    0.0100    0.0100    0.0100    0.0100    0.0100    0.0100    0.0100    0.0100
    0.0100    0.0100    0.0100    0.0100    0.0100    0.0100    0.0100    0.0100
    0.0100    0.0100    0.0100    0.0100    0.0100    0.0100    0.0100    0.0100
    0.0100    0.0100    0.0100    0.0100    0.0100    0.0100    0.0100    0.0100
    0.0100    0.0100    0.0100    0.0100    0.0100    0.0100    0.0100    0.0100
    0.0100    0.0100    0.0100    0.0100    0.0100    0.0100    0.0100    0.0100
    0.0100    0.0100    0.0100    0.0100    0.0100    0.0100    0.0100    0.0100
    0.0100    0.0100    0.0100    0.0100    0.0100    0.0100    0.0100    0.0100
    0.0100    0.0100    0.0100    0.0100    0.0100    0.0100    0.0100    0.0100
    0.0100    0.0100    0.0100    0.0100    0.0100    0.0100    0.0100    0.0100
    0.0100    0.0100    0.0100    0.0100    0.0100    0.0100    0.0100    0.0100
    0.0100    0.0100    0.0100    0.0100    0.0100    0.0100    0.0100    0.0100
    0.0100    0.0100    0.0100    0.0100    0.0100    0.0100    0.0100    0.0100
    0.0100    0.0100    0.0100    0.0100    0.0100    0.0100    0.0100    0.0100
    0.0100    0.0100    0.0100    0.0100    0.0100    0.0100    0.0100    0.0100
    0.0100    0.0100    0.0100    0.0100    0.0100    0.0100    0.0100    0.0100
    0.0100    0.0100    0.0100    0.0100    0.0100    0.0100    0.0100    0.0100
    0.0100    0.0100    0.0100    0.0100    0.0100    0.0100    0.0100    0.0100
    0.0100    0.0100    0.0100    0.0100    0.0100    0.0100    0.0100    0.0100
    0.0100    0.0100    0.0100    0.0100    0.0100    0.0100    0.0100    0.0100
    0.0100    0.0100    0.0100    0.0100    0.0100    0.0100    0.0100    0.0100
    0.0100    0.0100    0.0100    0.0100    0.0100    0.0100    0.0100    0.0100
    0.0100    0.0100    0.0100    0.0100    0.0100    0.0100    0.0100    0.0100
    0.0100    0.0100    0.0100    0.0100    0.0100    0.0100    0.0100    0.0100
    0.0100    0.0100    0.0100    0.0100    0.0100    0.0100    0.0100    0.0100
    0.0100    0.0100    0.0100    0.0100    0.0100    0.0100    0.0100    0.0100
    0.0100    0.0100    0.0100    0.0100    0.0100    0.0100    0.0100    0.0100
    0.0100    0.0100    0.0100    0.0100    0.0100    0.0100    0.0100    0.0100
    0.0100    0.0100    0.0100    0.0100    0.0100    0.0100    0.0100    0.0100
    0.0100    0.0100    0.0100    0.0100    0.0100    0.0100    0.0100    0.0100
    0.0100    0.0100    0.0100    0.0100    0.0100    0.0100    0.0100    0.0100
    0.0100    0.0100    0.0100    0.0100    0.0100    0.0100    0.0100    0.0100
    0.0100    0.0100    0.0100    0.0100    0.0100    0.0100    0.0100    0.0100
    0.0100    0.0100    0.0100    0.0100    0.0100    0.0100    0.0100    0.0100
    0.0100    0.0100    0.0100    0.0100    0.0100    0.0100    0.0100    0.0100
    0.0100    0.0100    0.0100    0.0100    0.0100    0.0100    0.0100    0.0100
    0.0100    0.0100    0.0100    0.0100    0.0100    0.0100    0.0100    0.0100
    0.0100    0.0100    0.0100    0.0100    0.0100    0.0100    0.0100    0.0100
    0.0100    0.0100    0.0100    0.0100    0.0100    0.0100    0.0100    0.0100
    0.0100    0.0100    0.0100    0.0100    0.0100    0.0100    0.0100    0.0100
    0.0100    0.0100    0.0100    0.0100    0.0100    0.0100    0.0100    0.0100
    0.0100    0.0100    0.0100    0.0100    0.0100    0.0100    0.0100    0.0100
    0.0100    0.0100    0.0100    0.0100    0.0100    0.0100    0.0100    0.0100
    0.0100    0.0100    0.0100    0.0100    0.0100    0.0100    0.0100    0.0100
    0.0100    0.0100    0.0100    0.0100    0.0100    0.0100    0.0100    0.0100
    0.0100    0.0100    0.0100    0.0100    0.0100    0.0100    0.0100    0.0100
    0.0100    0.0100    0.0100    0.0100    0.0100    0.0100    0.0100    0.0100
    0.0100    0.0100    0.0100    0.0100    0.0100    0.0100    0.0100    0.0100
    0.0100    0.0100    0.0100    0.0100    0.0100    0.0100    0.0100    0.0100
    0.0100    0.0100    0.0100    0.0100    0.0100    0.0100    0.0100    0.0100
    0.0100    0.0100    0.0100    0.0100    0.0100    0.0100    0.0100    0.0100
    0.0100    0.0100    0.0100    0.0100    0.0100    0.0100    0.0100    0.0100
    0.0100    0.0100    0.0100    0.0100    0.0100    0.0100    0.0100    0.0100
    0.0100    0.0100    0.0100    0.0100    0.0100    0.0100    0.0100    0.0100
    0.0100    0.0100    0.0100    0.0100    0.0100    0.0100    0.0100    0.0100
    0.0100    0.0100    0.0100    0.0100    0.0100    0.0100    0.0100    0.0100
    0.0100    0.0100    0.0100    0.0100    0.0100    0.0100    0.0100    0.0100
    0.0100    0.0100    0.0100    0.0100    0.0100    0.0100    0.0100    0.0100
    0.0100    0.0100    0.0100    0.0100    0.0100    0.0100    0.0100    0.0100
    0.0100    0.0100    0.0100    0.0100    0.0100    0.0100    0.0100    0.0100
    0.0100    0.0100    0.0100    0.0100    0.0100    0.0100    0.0100    0.0100
    0.0100    0.0100    0.0100    0.0100    0.0100    0.0100    0.0100    0.0100
    0.0100    0.0100    0.0100    0.0100    0.0100    0.0100    0.0100    0.0100
   </PP_RAB>
 </PP_MESH>
  <PP_LOCAL type="real"  size=" 936" columns="4">
   -2.2488892338E+01   -2.2566665257E+01   -2.3006864040E+01   -2.3421758389E+01
   -2.3674403519E+01   -2.3762651214E+01   -2.3734910914E+01   -2.3639751769E+01
   -2.3511436598E+01   -2.3370342092E+01   -2.3227001880E+01   -2.3085940867E+01
   -2.2948420700E+01   -2.2814158938E+01   -2.2682306675E+01   -2.2551954193E+01
   -2.2422359948E+01   -2.2293027614E+01   -2.2163705213E+01   -2.2034348257E+01
   -2.1905069998E+01   -2.1776091103E+01   -2.1647694948E+01   -2.1520191181E+01
   -2.1393888073E+01   -2.1269072921E+01   -2.1145999101E+01   -2.1024878087E+01
   -2.0905874784E+01   -2.0789104696E+01   -2.0674631813E+01   -2.0562466454E+01
   -2.0452562707E+01   -2.0344815501E+01   -2.0239057707E+01   -2.0135057960E+01
   -2.0032520110E+01   -1.9931085307E+01   -1.9830337649E+01   -1.9729814062E+01
   -1.9629018640E+01   -1.9527441076E+01   -1.9424578170E+01   -1.9319956771E+01
   -1.9213156117E+01   -1.9103827398E+01   -1.8991708590E+01   -1.8876633147E+01
   -1.8758531932E+01   -1.8637428587E+01   -1.8513429318E+01   -1.8386708618E+01
   -1.8257492697E+01   -1.8126042372E+01   -1.7992636897E+01   -1.7857559844E+01
   -1.7721087661E+01   -1.7583481161E+01   -1.7444979842E+01   -1.7305798713E+01
   -1.7166127186E+01   -1.7026129536E+01   -1.6885946468E+01   -1.6745697380E+01
   -1.6605482983E+01   -1.6465388032E+01   -1.6325483977E+01   -1.6185831437E+01
   -1.6046482402E+01   -1.5907482162E+01   -1.5768870934E+01   -1.5630685219E+01
   -1.5492958903E+01   -1.5355724139E+01   -1.5219012023E+01   -1.5082853122E+01
   -1.4947277851E+01   -1.4812316748E+01   -1.4678000649E+01   -1.4544360799E+01
   -1.4411428900E+01   -1.4279237119E+01   -1.4147818051E+01   -1.4017204669E+01
   -1.3887430247E+01   -1.3758528266E+01   -1.3630532318E+01   -1.3503475992E+01
   -1.3377392764E+01   -1.3252315878E+01   -1.3128278230E+01   -1.3005312247E+01
   -1.2883449766E+01   -1.2762721920E+01   -1.2643159018E+01   -1.2524790429E+01
   -1.2407644467E+01   -1.2291748283E+01   -1.2177127749E+01   -1.2063807355E+01
   -1.1951810100E+01   -1.1841157391E+01   -1.1731868942E+01   -1.1623962678E+01
   -1.1517454634E+01   -1.1412358870E+01   -1.1308687377E+01   -1.1206449991E+01
   -1.1105654309E+01   -1.1006305607E+01   -1.0908406760E+01   -1.0811958169E+01
   -1.0716957678E+01   -1.0623400512E+01   -1.0531279196E+01   -1.0440583490E+01
   -1.0351300317E+01   -1.0263413693E+01   -1.0176904657E+01   -1.0091751249E+01
   -1.0007928306E+01   -9.9254074812E+00   -9.8441590795E+00   -9.7641538710E+00
   -9.6853643382E+00   -9.6077642629E+00   -9.5313287424E+00   -9.4560341293E+00
   -9.3818579795E+00   -9.3087789845E+00   -9.2367768931E+00   -9.1658325344E+00
   -9.0959275507E+00   -9.0270444276E+00   -8.9591660551E+00   -8.8922781291E+00
   -8.8263718935E+00   -8.7614441449E+00   -8.6974933934E+00   -8.6345085955E+00
   -8.5724728368E+00   -8.5113674668E+00   -8.4511765123E+00   -8.3918865066E+00
   -8.3334817617E+00   -8.2759411948E+00   -8.2192368375E+00   -8.1633302369E+00
   -8.1081771363E+00   -8.0537565545E+00   -8.0000634197E+00   -7.9470828832E+00
   -7.8947988683E+00   -7.8431982129E+00   -7.7922677401E+00   -7.7419944351E+00
   -7.6923656532E+00   -7.6433690838E+00   -7.5949927243E+00   -7.5472248735E+00
   -7.5000541229E+00   -7.4534693471E+00   -7.4074596955E+00   -7.3620145835E+00
   -7.3171236848E+00   -7.2727769232E+00   -7.2289644652E+00   -7.1856767128E+00
   -7.1429042967E+00   -7.1006380690E+00   -7.0588690971E+00   -7.0175886574E+00
   -6.9767882291E+00   -6.9364594883E+00   -6.8965943025E+00   -6.8571847251E+00
   -6.8182229901E+00   -6.7797015068E+00   -6.7416128553E+00   -6.7039497813E+00
   -6.6667051918E+00   -6.6298721505E+00   -6.5934438736E+00   -6.5574137256E+00
   -6.5217752150E+00   -6.4865219910E+00   -6.4516478391E+00   -6.4171466778E+00
   -6.3830125552E+00   -6.3492396449E+00   -6.3158222437E+00   -6.2827547675E+00
   -6.2500317485E+00   -6.2176478325E+00   -6.1855977754E+00   -6.1538764410E+00
   -6.1224787975E+00   -6.0913999156E+00   -6.0606349656E+00   -6.0301792146E+00
   -6.0000280245E+00   -5.9701768497E+00   -5.9406212343E+00   -5.9113568104E+00
   -5.8823792957E+00   -5.8536844915E+00   -5.8252682805E+00   -5.7971266250E+00
   -5.7692555651E+00   -5.7416512166E+00   -5.7143097692E+00   -5.6872274849E+00
   -5.6604006964E+00   -5.6338258049E+00   -5.6074992792E+00   -5.5814176537E+00
   -5.5555775270E+00   -5.5299755602E+00   -5.5046084760E+00   -5.4794730567E+00
   -5.4545661432E+00   -5.4298846337E+00   -5.4054254820E+00   -5.3811856968E+00
   -5.3571623402E+00   -5.3333525263E+00   -5.3097534206E+00   -5.2863622383E+00
   -5.2631762436E+00   -5.2401927484E+00   -5.2174091114E+00   -5.1948227370E+00
   -5.1724310744E+00   -5.1502316167E+00   -5.1282218995E+00   -5.1063995007E+00
   -5.0847620392E+00   -5.0633071738E+00   -5.0420326031E+00   -5.0209360639E+00
   -5.0000153307E+00   -4.9792682152E+00   -4.9586925651E+00   -4.9382862635E+00
   -4.9180472282E+00   -4.8979734110E+00   -4.8780627973E+00   -4.8583134046E+00
   -4.8387232828E+00   -4.8192905130E+00   -4.8000132069E+00   -4.7808895064E+00
   -4.7619175828E+00   -4.7430956366E+00   -4.7244218961E+00   -4.7058946180E+00
   -4.6875120856E+00   -4.6692726095E+00   -4.6511745264E+00   -4.6332161986E+00
   -4.6153960133E+00   -4.5977123828E+00   -4.5801637431E+00   -4.5627485547E+00
   -4.5454653010E+00   -4.5283124886E+00   -4.5112886463E+00   -4.4943923251E+00
   -4.4776220973E+00   -4.4609765568E+00   -4.4444543181E+00   -4.4280540163E+00
   -4.4117743065E+00   -4.3956138635E+00   -4.3795713814E+00   -4.3636455735E+00
   -4.3478351715E+00   -4.3321389256E+00   -4.3165556038E+00   -4.3010839919E+00
   -4.2857228930E+00   -4.2704711272E+00   -4.2553275315E+00   -4.2402909591E+00
   -4.2253602796E+00   -4.2105343782E+00   -4.1958121558E+00   -4.1811925288E+00
   -4.1666744284E+00   -4.1522568007E+00   -4.1379386064E+00   -4.1237188202E+00
   -4.1095964312E+00   -4.0955704422E+00   -4.0816398694E+00   -4.0678037425E+00
   -4.0540611043E+00   -4.0404110104E+00   -4.0268525292E+00   -4.0133847414E+00
   -4.0000067402E+00   -3.9867176307E+00   -3.9735165297E+00   -3.9604025659E+00
   -3.9473748795E+00   -3.9344326216E+00   -3.9215749549E+00   -3.9088010527E+00
   -3.8961100991E+00   -3.8835012886E+00   -3.8709738265E+00   -3.8585269280E+00
   -3.8461598183E+00   -3.8338717328E+00   -3.8216619164E+00   -3.8095296237E+00
   -3.7974741186E+00   -3.7854946746E+00   -3.7735905739E+00   -3.7617611081E+00
   -3.7500055774E+00   -3.7383232908E+00   -3.7267135660E+00   -3.7151757289E+00
   -3.7037091138E+00   -3.6923130635E+00   -3.6809869284E+00   -3.6697300671E+00
   -3.6585418461E+00   -3.6474216393E+00   -3.6363688286E+00   -3.6253828029E+00
   -3.6144629589E+00   -3.6036087003E+00   -3.5928194379E+00   -3.5820945898E+00
   -3.5714335807E+00   -3.5608358424E+00   -3.5503008132E+00   -3.5398279382E+00
   -3.5294166690E+00   -3.5190664635E+00   -3.5087767862E+00   -3.4985471075E+00
   -3.4883769043E+00   -3.4782656593E+00   -3.4682128613E+00   -3.4582180050E+00
   -3.4482805910E+00   -3.4384001253E+00   -3.4285761199E+00   -3.4188080922E+00
   -3.4090955650E+00   -3.3994380668E+00   -3.3898351311E+00   -3.3802862969E+00
   -3.3707911081E+00   -3.3613491141E+00   -3.3519598690E+00   -3.3426229319E+00
   -3.3333378671E+00   -3.3241042434E+00   -3.3149216345E+00   -3.3057896188E+00
   -3.2967077792E+00   -3.2876757035E+00   -3.2786929835E+00   -3.2697592160E+00
   -3.2608740018E+00   -3.2520369461E+00   -3.2432476585E+00   -3.2345057528E+00
   -3.2258108467E+00   -3.2171625622E+00   -3.2085605254E+00   -3.2000043664E+00
   -3.1914937189E+00   -3.1830282209E+00   -3.1746075140E+00   -3.1662312437E+00
   -3.1578990592E+00   -3.1496106132E+00   -3.1413655624E+00   -3.1331635667E+00
   -3.1250042899E+00   -3.1168873989E+00   -3.1088125645E+00   -3.1007794605E+00
   -3.0927877643E+00   -3.0848371566E+00   -3.0769273213E+00   -3.0690579455E+00
   -3.0612287196E+00   -3.0534393371E+00   -3.0456894946E+00   -3.0379788919E+00
   -3.0303072316E+00   -3.0226742194E+00   -3.0150795641E+00   -3.0075229772E+00
   -3.0000041732E+00   -2.9925228695E+00   -2.9850787862E+00   -2.9776716461E+00
   -2.9703011751E+00   -2.9629671013E+00   -2.9556691560E+00   -2.9484070728E+00
   -2.9411805880E+00   -2.9339894404E+00   -2.9268333715E+00   -2.9197121253E+00
   -2.9126254482E+00   -2.9055730891E+00   -2.8985547993E+00   -2.8915703324E+00
   -2.8846194447E+00   -2.8777018945E+00   -2.8708174425E+00   -2.8639658518E+00
   -2.8571468876E+00   -2.8503603174E+00   -2.8436059110E+00   -2.8368834403E+00