Re    ONCVPSP-3.3.0  r_core=   1.60865   1.60865   1.60865   2.01786
     75.0000     15.0000      220117    zatom,zion,pspd
     8      11   3     4   600     0    pspcod,pspxc,lmax,lloc,mmax,r2well
  5.99000000  0.00000000  0.00000000    rchrg fchrg qchrg
     2     2     2     2     0    nproj
     1     1           extension_switch
   0                         6.3200425057449D+00 -9.6515454897627D-01
     1  0.0000000000000D+00  1.7433215981910D-10  1.9404501339082D-09
     2  1.0000000000000D-02  5.3502283488587D-02 -6.1310878591908D-02
     3  2.0000000000000D-02  1.0694789402955D-01 -1.2223120196104D-01
     4  3.0000000000000D-02  1.6027998998223D-01 -1.8237406548371D-01
     5  4.0000000000000D-02  2.1344139588343D-01 -2.4135982378416D-01
     6  5.0000000000000D-02  2.6637444439999D-01 -2.9881961598228D-01
     7  6.0000000000000D-02  3.1902082879293D-01 -3.5439876708296D-01
     8  7.0000000000000D-02  3.7132146918993D-01 -4.0776002652501D-01
     9  8.0000000000000D-02  4.2321639578876D-01 -4.5858660684840D-01
    10  9.0000000000000D-02  4.7464465190009D-01 -5.0658498782093D-01
    11  1.0000000000000D-01  5.2554421948659D-01 -5.5148745416308D-01
    12  1.1000000000000D-01  5.7585196956990D-01 -5.9305433818845D-01
    13  1.2000000000000D-01  6.2550363955966D-01 -6.3107594220108D-01
    14  1.3000000000000D-01  6.7443383921516D-01 -6.6537411931773D-01
    15  1.4000000000000D-01  7.2257608658238D-01 -6.9580349546825D-01
    16  1.5000000000000D-01  7.6986287486257D-01 -7.2225231962338D-01
    17  1.6000000000000D-01  8.1622577076756D-01 -7.4464293375405D-01
    18  1.7000000000000D-01  8.6159554450589D-01 -7.6293185858969D-01
    19  1.8000000000000D-01  9.0590233112794D-01 -7.7710949585855D-01
    20  1.9000000000000D-01  9.4907582254201D-01 -7.8719945230773D-01
    21  2.0000000000000D-01  9.9104548910236D-01 -7.9325749535897D-01
    22  2.1000000000000D-01  1.0317408292682D+00 -7.9537015470352D-01
    23  2.2000000000000D-01  1.0710916454459D+00 -7.9365298842300D-01
    24  2.3000000000000D-01  1.1090283437590D+00 -7.8824853629096D-01
    25  2.4000000000000D-01  1.1454822551454D+00 -7.7932398671295D-01
    26  2.5000000000000D-01  1.1803859748661D+00 -7.6706858725494D-01
    27  2.6000000000000D-01  1.2136737172231D+00 -7.5169083184739D-01
    28  2.7000000000000D-01  1.2452816820365D+00 -7.3341546049823D-01
    29  2.8000000000000D-01  1.2751484292185D+00 -7.1248030966455D-01
    30  2.9000000000000D-01  1.3032152576121D+00 -6.8913305329464D-01
    31  3.0000000000000D-01  1.3294265841355D+00 -6.6362787593114D-01
    32  3.1000000000000D-01  1.3537303191929D+00 -6.3622212014516D-01
    33  3.2000000000000D-01  1.3760782342757D+00 -6.0717295093875D-01
    34  3.3000000000000D-01  1.3964263176919D+00 -5.7673407959800D-01
    35  3.4000000000000D-01  1.4147351144191D+00 -5.4515258880589D-01
    36  3.5000000000000D-01  1.4309700461870D+00 -5.1266589963258D-01
    37  3.6000000000000D-01  1.4451017080429D+00 -4.7949891932658D-01
    38  3.7000000000000D-01  1.4571061378556D+00 -4.4586140664853D-01
    39  3.8000000000000D-01  1.4669650554526D+00 -4.1194558884432D-01
    40  3.9000000000000D-01  1.4746660683640D+00 -3.7792406127398D-01
    41  4.0000000000000D-01  1.4802028414683D+00 -3.4394799723327D-01
    42  4.1000000000000D-01  1.4835752281834D+00 -3.1014569166363D-01
    43  4.2000000000000D-01  1.4847893612327D+00 -2.7662145828802D-01
    44  4.3000000000000D-01  1.4838577014213D+00 -2.4345489528446D-01
    45  4.4000000000000D-01  1.4807990432875D+00 -2.1070052996326D-01
    46  4.5000000000000D-01  1.4756384769439D+00 -1.7838784810901D-01
    47  4.6000000000000D-01  1.4684073058769D+00 -1.4652170873533D-01
    48  4.7000000000000D-01  1.4591429209402D+00 -1.1508314004081D-01
    49  4.8000000000000D-01  1.4478886312440D+00 -8.4030507409725D-02
    50  4.9000000000000D-01  1.4346934531012D+00 -5.3301039427203D-02
    51  5.0000000000000D-01  1.4196118586454D+00 -2.2812693139381D-02
    52  5.1000000000000D-01  1.4027034861721D+00  7.5336647590142D-03
    53  5.2000000000000D-01  1.3840328146725D+00  3.7851788426500D-02
    54  5.3000000000000D-01  1.3636688054181D+00  6.8267326676246D-02
    55  5.4000000000000D-01  1.3416845138227D+00  9.8914875329548D-02
    56  5.5000000000000D-01  1.3181566751300D+00  1.2993484660974D-01
    57  5.6000000000000D-01  1.2931652677706D+00  1.6147019685372D-01
    58  5.7000000000000D-01  1.2667930584787D+00  1.9366305612760D-01
    59  5.8000000000000D-01  1.2391251334605D+00  2.2665130511572D-01
    60  5.9000000000000D-01  1.2102484200681D+00  2.6056514589824D-01
    61  6.0000000000000D-01  1.1802512035316D+00  2.9552371390573D-01
    62  6.1000000000000D-01  1.1492226433644D+00  3.3163177843404D-01
    63  6.2000000000000D-01  1.1172522940548D+00  3.6897657861125D-01
    64  6.3000000000000D-01  1.0844296346103D+00  4.0762484062381D-01
    65  6.4000000000000D-01  1.0508436114174D+00  4.4762002034090D-01
    66  6.5000000000000D-01  1.0165821987272D+00  4.8897981325186D-01
    67  6.6000000000000D-01  9.8173198087335D-01  5.3169397083501D-01
    68  6.7000000000000D-01  9.4637776007691D-01  5.7572245917616D-01
    69  6.8000000000000D-01  9.1060219339774D-01  6.2099399187472D-01
    70  6.9000000000000D-01  8.7448546205060D-01  6.6740496501561D-01
    71  7.0000000000000D-01  8.3810497592870D-01  7.1481881735858D-01
    72  7.1000000000000D-01  8.0153511576494D-01  7.6306583389572D-01
    73  7.2000000000000D-01  7.6484701492136D-01  8.1194340566111D-01
    74  7.3000000000000D-01  7.2810838232966D-01  8.6121675313079D-01
    75  7.4000000000000D-01  6.9138336762248D-01  9.1062011488295D-01
    76  7.5000000000000D-01  6.5473246899615D-01  9.5985839738966D-01
    77  7.6000000000000D-01  6.1821248383956D-01  1.0086092759845D+00
    78  7.7000000000000D-01  5.8187650165560D-01  1.0565257312582D+00
    79  7.8000000000000D-01  5.4577393829967D-01  1.1032389994626D+00
    80  7.9000000000000D-01  5.0995061006371D-01  1.1483619099713D+00
    81  8.0000000000000D-01  4.7444884565988D-01  1.1914925776011D+00
    82  8.1000000000000D-01  4.3930763370157D-01  1.2322184126376D+00
    83  8.2000000000000D-01  4.0456280285313D-01  1.2701204068309D+00
    84  8.3000000000000D-01  3.7024723142485D-01  1.3047776494868D+00
    85  8.4000000000000D-01  3.3639108283426D-01  1.3357720241258D+00
    86  8.5000000000000D-01  3.0302206304058D-01  1.3626930330727D+00
    87  8.6000000000000D-01  2.7016569579254D-01  1.3851426948150D+00
    88  8.7000000000000D-01  2.3784561131266D-01  1.4027404570675D+00
    89  8.8000000000000D-01  2.0608384387761D-01  1.4151280672345D+00
    90  8.9000000000000D-01  1.7490113364577D-01  1.4219743413962D+00
    91  9.0000000000000D-01  1.4431722803234D-01  1.4229797730711D+00
    92  9.1000000000000D-01  1.1435117793956D-01  1.4178809238389D+00
    93  9.2000000000000D-01  8.5021624215457D-02  1.4064545394384D+00
    94  9.3000000000000D-01  5.6347069838741D-02  1.3885213371839D+00
    95  9.4000000000000D-01  2.8346133508573D-02  1.3639494134356D+00
    96  9.5000000000000D-01  1.0377805557080D-03  1.3326572234302D+00
    97  9.6000000000000D-01 -2.5558472618973D-02  1.2946160899373D+00
    98  9.7000000000000D-01 -5.1422384036030D-02  1.2498522019093D+00
    99  9.8000000000000D-01 -7.6532844624530D-02  1.1984480696481D+00
   100  9.9000000000000D-01 -1.0086777234748D-01  1.1405434086801D+00
   101  1.0000000000000D+00 -1.2440404414182D-01  1.0763354307152D+00
   102  1.0100000000000D+00 -1.4711746735344D-01  1.0060785265433D+00
   103  1.0200000000000D+00 -1.6898279182685D-01  9.3008333248219D-01
   104  1.0300000000000D+00 -1.8997376325430D-01  8.4871517909764D-01
   105  1.0400000000000D+00 -2.1006321787225D-01  7.6239192752336D-01
   106  1.0500000000000D+00 -2.2922321797977D-01  6.7158120645778D-01
   107  1.0600000000000D+00 -2.4742522723075D-01  5.7679706948722D-01
   108  1.0700000000000D+00 -2.6464032408702D-01  4.7859609944010D-01
   109  1.0800000000000D+00 -2.8083945125765D-01  3.7757299344653D-01
   110  1.0900000000000D+00 -2.9599369849207D-01  2.7435566802825D-01
   111  1.1000000000000D+00 -3.1007461552695D-01  1.6959993050288D-01
   112  1.1100000000000D+00 -3.2305455157780D-01  6.3983767955608D-02
   113  1.1200000000000D+00 -3.3490701732529D-01 -4.1798689644314D-02
   114  1.1300000000000D+00 -3.4560706499390D-01 -1.4704347139837D-01
   115  1.1400000000000D+00 -3.5513168178672D-01 -2.5104326775990D-01
   116  1.1500000000000D+00 -3.6346019165133D-01 -3.5309406505713D-01
   117  1.1600000000000D+00 -3.7057466016858D-01 -4.5250184212478D-01
   118  1.1700000000000D+00 -3.7646029721041D-01 -5.4858925733401D-01
   119  1.1800000000000D+00 -3.8110585189704D-01 -6.4070225313724D-01
   120  1.1900000000000D+00 -3.8450399437785D-01 -7.2821650546043D-01
   121  1.2000000000000D+00 -3.8665167905627D-01 -8.1054364675098D-01
   122  1.2100000000000D+00 -3.8755048388634D-01 -8.8713719173887D-01
   123  1.2200000000000D+00 -3.8720692063538D-01 -9.5749809870665D-01
   124  1.2300000000000D+00 -3.8563271127354D-01 -1.0211799025648D+00
   125  1.2400000000000D+00 -3.8284502585518D-01 -1.0777933587760D+00
   126  1.2500000000000D+00 -3.7886667765070D-01 -1.1270105423649D+00
   127  1.2600000000000D+00 -3.7372627185820D-01 -1.1685683536154D+00
   128  1.2700000000000D+00 -3.6745830450785D-01 -1.2022713856990D+00
   129  1.2800000000000D+00 -3.6010320864559D-01 -1.2279941156197D+00
   130  1.2900000000000D+00 -3.5170734581530D-01 -1.2456823917168D+00
   131  1.3000000000000D+00 -3.4232294102434D-01 -1.2553541930758D+00
   132  1.3100000000000D+00 -3.3200796004034D-01 -1.2570996446566D+00
   133  1.3200000000000D+00 -3.2082592904274D-01 -1.2510802867846D+00
   134  1.3300000000000D+00 -3.0884569648876D-01 -1.2375275955833D+00
   135  1.3400000000000D+00 -2.9614113818811D-01 -1.2167407652739D+00
   136  1.3500000000000D+00 -2.8279080762632D-01 -1.1890837763690D+00
   137  1.3600000000000D+00 -2.6887753299185D-01 -1.1549817664743D+00
   138  1.3700000000000D+00 -2.5448796440187D-01 -1.1149167460235D+00
   139  1.3800000000000D+00 -2.3971207473092D-01 -1.0694227001083D+00
   140  1.3900000000000D+00 -2.2464261752839D-01 -1.0190801186141D+00
   141  1.4000000000000D+00 -2.0937454745676D-01 -9.6451002124393D-01
   142  1.4100000000000D+00 -1.9400440754702D-01 -9.0636752979267D-01
   143  1.4200000000000D+00 -1.7862968914427D-01 -8.4533505977002D-01
   144  1.4300000000000D+00 -1.6334817050235D-01 -7.8211520459085D-01
   145  1.4400000000000D+00 -1.4825723976021D-01 -7.1742338264994D-01
   146  1.4500000000000D+00 -1.3345320931760D-01 -6.5198033381736D-01
   147  1.4600000000000D+00 -1.1903062770206D-01 -5.8650454021461D-01
   148  1.4700000000000D+00 -1.0508159606148D-01 -5.2170465927006D-01
   149  1.4800000000000D+00 -9.1695095633886D-02 -4.5827204737514D-01
   150  1.4900000000000D+00 -7.8956333464552D-02 -3.9687346374243D-01
   151  1.5000000000000D+00 -6.6946112104423D-02 -3.3814402543531D-01
   152  1.5100000000000D+00 -5.5740230878261D-02 -2.8268050706103D-01
   153  1.5200000000000D+00 -4.5408923571012D-02 -2.3103504532476D-01
   154  1.5300000000000D+00 -3.6016339468454D-02 -1.8370933402509D-01
   155  1.5400000000000D+00 -2.7620072514492D-02 -1.4114936860703D-01
   156  1.5500000000000D+00 -2.0270743524613D-02 -1.0374080147518D-01
   157  1.5600000000000D+00 -1.4016101891309D-02 -7.1827896298368D-02
   158  1.5700000000000D+00 -8.8791259000984D-03 -4.5599273879013D-02
   159  1.5800000000000D+00 -4.8696358959970D-03 -2.5142314119988D-02
   160  1.5900000000000D+00 -2.0976486504100D-03 -1.1046217228725D-02
   161  1.6000000000000D+00 -5.7744111653354D-04 -3.3742413044754D-03
   162  1.6100000000000D+00  1.2216545673148D-05 -3.3511940493418D-04
   163  1.6200000000000D+00  7.8327374857802D-05  2.2329362778391D-04
   164  1.6300000000000D+00 -1.2255450437335D-05 -4.1759725271333D-05
   165  1.6400000000000D+00 -2.7041140155732D-05 -9.8910205966044D-05
   166  1.6500000000000D+00  2.4005100982820D-06  7.4826981934517D-06
   167  1.6600000000000D+00  4.8260231692532D-06  1.5764856086974D-05
   168  1.6700000000000D+00  3.8099309857088D-08  7.5656149172682D-07
   169  1.6800000000000D+00  7.0567775771137D-08  1.4013078427278D-06
   170  1.6900000000000D+00  0.0000000000000D+00  0.0000000000000D+00
   171  1.7000000000000D+00  0.0000000000000D+00  0.0000000000000D+00
   172  1.7100000000000D+00  0.0000000000000D+00  0.0000000000000D+00
   173  1.7200000000000D+00  0.0000000000000D+00  0.0000000000000D+00
   174  1.7300000000000D+00  0.0000000000000D+00  0.0000000000000D+00
   175  1.7400000000000D+00  0.0000000000000D+00  0.0000000000000D+00
   176  1.7500000000000D+00  0.0000000000000D+00  0.0000000000000D+00
   177  1.7600000000000D+00  0.0000000000000D+00  0.0000000000000D+00
   178  1.7700000000000D+00  0.0000000000000D+00  0.0000000000000D+00
   179  1.7800000000000D+00  0.0000000000000D+00  0.0000000000000D+00
   180  1.7900000000000D+00  0.0000000000000D+00  0.0000000000000D+00
   181  1.8000000000000D+00  0.0000000000000D+00  0.0000000000000D+00
   182  1.8100000000000D+00  0.0000000000000D+00  0.0000000000000D+00
   183  1.8200000000000D+00  0.0000000000000D+00  0.0000000000000D+00
   184  1.8300000000000D+00  0.0000000000000D+00  0.0000000000000D+00
   185  1.8400000000000D+00  0.0000000000000D+00  0.0000000000000D+00
   186  1.8500000000000D+00  0.0000000000000D+00  0.0000000000000D+00
   187  1.8600000000000D+00  0.0000000000000D+00  0.0000000000000D+00
   188  1.8700000000000D+00  0.0000000000000D+00  0.0000000000000D+00
   189  1.8800000000000D+00  0.0000000000000D+00  0.0000000000000D+00
   190  1.8900000000000D+00  0.0000000000000D+00  0.0000000000000D+00
   191  1.9000000000000D+00  0.0000000000000D+00  0.0000000000000D+00
   192  1.9100000000000D+00  0.0000000000000D+00  0.0000000000000D+00
   193  1.9200000000000D+00  0.0000000000000D+00  0.0000000000000D+00
   194  1.9300000000000D+00  0.0000000000000D+00  0.0000000000000D+00
   195  1.9400000000000D+00  0.0000000000000D+00  0.0000000000000D+00
   196  1.9500000000000D+00  0.0000000000000D+00  0.0000000000000D+00
   197  1.9600000000000D+00  0.0000000000000D+00  0.0000000000000D+00
   198  1.9700000000000D+00  0.0000000000000D+00  0.0000000000000D+00
   199  1.9800000000000D+00  0.0000000000000D+00  0.0000000000000D+00
   200  1.9900000000000D+00  0.0000000000000D+00  0.0000000000000D+00
   201  2.0000000000000D+00  0.0000000000000D+00  0.0000000000000D+00
   202  2.0100000000000D+00  0.0000000000000D+00  0.0000000000000D+00
   203  2.0200000000000D+00  0.0000000000000D+00  0.0000000000000D+00
   204  2.0300000000000D+00  0.0000000000000D+00  0.0000000000000D+00
   205  2.0400000000000D+00  0.0000000000000D+00  0.0000000000000D+00
   206  2.0500000000000D+00  0.0000000000000D+00  0.0000000000000D+00
   207  2.0600000000000D+00  0.0000000000000D+00  0.0000000000000D+00
   208  2.0700000000000D+00  0.0000000000000D+00  0.0000000000000D+00
   209  2.0800000000000D+00  0.0000000000000D+00  0.0000000000000D+00
   210  2.0900000000000D+00  0.0000000000000D+00  0.0000000000000D+00
   211  2.1000000000000D+00  0.0000000000000D+00  0.0000000000000D+00
   212  2.1100000000000D+00  0.0000000000000D+00  0.0000000000000D+00
   213  2.1200000000000D+00  0.0000000000000D+00  0.0000000000000D+00
   214  2.1300000000000D+00  0.0000000000000D+00  0.0000000000000D+00
   215  2.1400000000000D+00  0.0000000000000D+00  0.0000000000000D+00
   216  2.1500000000000D+00  0.0000000000000D+00  0.0000000000000D+00
   217  2.1600000000000D+00  0.0000000000000D+00  0.0000000000000D+00
   218  2.1700000000000D+00  0.0000000000000D+00  0.0000000000000D+00
   219  2.1800000000000D+00  0.0000000000000D+00  0.0000000000000D+00
   220  2.1900000000000D+00  0.0000000000000D+00  0.0000000000000D+00
   221  2.2000000000000D+00  0.0000000000000D+00  0.0000000000000D+00
   222  2.2100000000000D+00  0.0000000000000D+00  0.0000000000000D+00
   223  2.2200000000000D+00  0.0000000000000D+00  0.0000000000000D+00
   224  2.2300000000000D+00  0.0000000000000D+00  0.0000000000000D+00
   225  2.2400000000000D+00  0.0000000000000D+00  0.0000000000000D+00
   226  2.2500000000000D+00  0.0000000000000D+00  0.0000000000000D+00
   227  2.2600000000000D+00  0.0000000000000D+00  0.0000000000000D+00
   228  2.2700000000000D+00  0.0000000000000D+00  0.0000000000000D+00
   229  2.2800000000000D+00  0.0000000000000D+00  0.0000000000000D+00
   230  2.2900000000000D+00  0.0000000000000D+00  0.0000000000000D+00
   231  2.3000000000000D+00  0.0000000000000D+00  0.0000000000000D+00
   232  2.3100000000000D+00  0.0000000000000D+00  0.0000000000000D+00
   233  2.3200000000000D+00  0.0000000000000D+00  0.0000000000000D+00
   234  2.3300000000000D+00  0.0000000000000D+00  0.0000000000000D+00
   235  2.3400000000000D+00  0.0000000000000D+00  0.0000000000000D+00
   236  2.3500000000000D+00  0.0000000000000D+00  0.0000000000000D+00
   237  2.3600000000000D+00  0.0000000000000D+00  0.0000000000000D+00
   238  2.3700000000000D+00  0.0000000000000D+00  0.0000000000000D+00
   239  2.3800000000000D+00  0.0000000000000D+00  0.0000000000000D+00
   240  2.3900000000000D+00  0.0000000000000D+00  0.0000000000000D+00
   241  2.4000000000000D+00  0.0000000000000D+00  0.0000000000000D+00
   242  2.4100000000000D+00  0.0000000000000D+00  0.0000000000000D+00
   243  2.4200000000000D+00  0.0000000000000D+00  0.0000000000000D+00
   244  2.4300000000000D+00  0.0000000000000D+00  0.0000000000000D+00
   245  2.4400000000000D+00  0.0000000000000D+00  0.0000000000000D+00
   246  2.4500000000000D+00  0.0000000000000D+00  0.0000000000000D+00
   247  2.4600000000000D+00  0.0000000000000D+00  0.0000000000000D+00
   248  2.4700000000000D+00  0.0000000000000D+00  0.0000000000000D+00
   249  2.4800000000000D+00  0.0000000000000D+00  0.0000000000000D+00
   250  2.4900000000000D+00  0.0000000000000D+00  0.0000000000000D+00
   251  2.5000000000000D+00  0.0000000000000D+00  0.0000000000000D+00
   252  2.5100000000000D+00  0.0000000000000D+00  0.0000000000000D+00
   253  2.5200000000000D+00  0.0000000000000D+00  0.0000000000000D+00
   254  2.5300000000000D+00  0.0000000000000D+00  0.0000000000000D+00
   255  2.5400000000000D+00  0.0000000000000D+00  0.0000000000000D+00
   256  2.5500000000000D+00  0.0000000000000D+00  0.0000000000000D+00
   257  2.5600000000000D+00  0.0000000000000D+00  0.0000000000000D+00
   258  2.5700000000000D+00  0.0000000000000D+00  0.0000000000000D+00
   259  2.5800000000000D+00  0.0000000000000D+00  0.0000000000000D+00
   260  2.5900000000000D+00  0.0000000000000D+00  0.0000000000000D+00
   261  2.6000000000000D+00  0.0000000000000D+00  0.0000000000000D+00
   262  2.6100000000000D+00  0.0000000000000D+00  0.0000000000000D+00
   263  2.6200000000000D+00  0.0000000000000D+00  0.0000000000000D+00
   264  2.6300000000000D+00  0.0000000000000D+00  0.0000000000000D+00
   265  2.6400000000000D+00  0.0000000000000D+00  0.0000000000000D+00
   266  2.6500000000000D+00  0.0000000000000D+00  0.0000000000000D+00
   267  2.6600000000000D+00  0.0000000000000D+00  0.0000000000000D+00
   268  2.6700000000000D+00  0.0000000000000D+00  0.0000000000000D+00
   269  2.6800000000000D+00  0.0000000000000D+00  0.0000000000000D+00
   270  2.6900000000000D+00  0.0000000000000D+00  0.0000000000000D+00
   271  2.7000000000000D+00  0.0000000000000D+00  0.0000000000000D+00
   272  2.7100000000000D+00  0.0000000000000D+00  0.0000000000000D+00
   273  2.7200000000000D+00  0.0000000000000D+00  0.0000000000000D+00
   274  2.7300000000000D+00  0.0000000000000D+00  0.0000000000000D+00
   275  2.7400000000000D+00  0.0000000000000D+00  0.0000000000000D+00
   276  2.7500000000000D+00  0.0000000000000D+00  0.0000000000000D+00
   277  2.7600000000000D+00  0.0000000000000D+00  0.0000000000000D+00
   278  2.7700000000000D+00  0.0000000000000D+00  0.0000000000000D+00
   279  2.7800000000000D+00  0.0000000000000D+00  0.0000000000000D+00
   280  2.7900000000000D+00  0.0000000000000D+00  0.0000000000000D+00
   281  2.8000000000000D+00  0.0000000000000D+00  0.0000000000000D+00
   282  2.8100000000000D+00  0.0000000000000D+00  0.0000000000000D+00
   283  2.8200000000000D+00  0.0000000000000D+00  0.0000000000000D+00
   284  2.8300000000000D+00  0.0000000000000D+00  0.0000000000000D+00
   285  2.8400000000000D+00  0.0000000000000D+00  0.0000000000000D+00
   286  2.8500000000000D+00  0.0000000000000D+00  0.0000000000000D+00
   287  2.8600000000000D+00  0.0000000000000D+00  0.0000000000000D+00
   288  2.8700000000000D+00  0.0000000000000D+00  0.0000000000000D+00
   289  2.8800000000000D+00  0.0000000000000D+00  0.0000000000000D+00
   290  2.8900000000000D+00  0.0000000000000D+00  0.0000000000000D+00
   291  2.9000000000000D+00  0.0000000000000D+00  0.0000000000000D+00
   292  2.9100000000000D+00  0.0000000000000D+00  0.0000000000000D+00
   293  2.9200000000000D+00  0.0000000000000D+00  0.0000000000000D+00
   294  2.9300000000000D+00  0.0000000000000D+00  0.0000000000000D+00
   295  2.9400000000000D+00  0.0000000000000D+00  0.0000000000000D+00
   296  2.9500000000000D+00  0.0000000000000D+00  0.0000000000000D+00
   297  2.9600000000000D+00  0.0000000000000D+00  0.0000000000000D+00
   298  2.9700000000000D+00  0.0000000000000D+00  0.0000000000000D+00
   299  2.9800000000000D+00  0.0000000000000D+00  0.0000000000000D+00
   300  2.9900000000000D+00  0.0000000000000D+00  0.0000000000000D+00
   301  3.0000000000000D+00  0.0000000000000D+00  0.0000000000000D+00
   302  3.0100000000000D+00  0.0000000000000D+00  0.0000000000000D+00
   303  3.0200000000000D+00  0.0000000000000D+00  0.0000000000000D+00
   304  3.0300000000000D+00  0.0000000000000D+00  0.0000000000000D+00
   305  3.0400000000000D+00  0.0000000000000D+00  0.0000000000000D+00
   306  3.0500000000000D+00  0.0000000000000D+00  0.0000000000000D+00
   307  3.0600000000000D+00  0.0000000000000D+00  0.0000000000000D+00
   308  3.0700000000000D+00  0.0000000000000D+00  0.0000000000000D+00
   309  3.0800000000000D+00  0.0000000000000D+00  0.0000000000000D+00
   310  3.0900000000000D+00  0.0000000000000D+00  0.0000000000000D+00
   311  3.1000000000000D+00  0.0000000000000D+00  0.0000000000000D+00
   312  3.1100000000000D+00  0.0000000000000D+00  0.0000000000000D+00
   313  3.1200000000000D+00  0.0000000000000D+00  0.0000000000000D+00
   314  3.1300000000000D+00  0.0000000000000D+00  0.0000000000000D+00
   315  3.1400000000000D+00  0.0000000000000D+00  0.0000000000000D+00
   316  3.1500000000000D+00  0.0000000000000D+00  0.0000000000000D+00
   317  3.1600000000000D+00  0.0000000000000D+00  0.0000000000000D+00
   318  3.1700000000000D+00  0.0000000000000D+00  0.0000000000000D+00
   319  3.1800000000000D+00  0.0000000000000D+00  0.0000000000000D+00
   320  3.1900000000000D+00  0.0000000000000D+00  0.0000000000000D+00
   321  3.2000000000000D+00  0.0000000000000D+00  0.0000000000000D+00
   322  3.2100000000000D+00  0.0000000000000D+00  0.0000000000000D+00
   323  3.2200000000000D+00  0.0000000000000D+00  0.0000000000000D+00
   324  3.2300000000000D+00  0.0000000000000D+00  0.0000000000000D+00
   325  3.2400000000000D+00  0.0000000000000D+00  0.0000000000000D+00
   326  3.2500000000000D+00  0.0000000000000D+00  0.0000000000000D+00
   327  3.2600000000000D+00  0.0000000000000D+00  0.0000000000000D+00
   328  3.2700000000000D+00  0.0000000000000D+00  0.0000000000000D+00
   329  3.2800000000000D+00  0.0000000000000D+00  0.0000000000000D+00
   330  3.2900000000000D+00  0.0000000000000D+00  0.0000000000000D+00
   331  3.3000000000000D+00  0.0000000000000D+00  0.0000000000000D+00
   332  3.3100000000000D+00  0.0000000000000D+00  0.0000000000000D+00
   333  3.3200000000000D+00  0.0000000000000D+00  0.0000000000000D+00
   334  3.3300000000000D+00  0.0000000000000D+00  0.0000000000000D+00
   335  3.3400000000000D+00  0.0000000000000D+00  0.0000000000000D+00
   336  3.3500000000000D+00  0.0000000000000D+00  0.0000000000000D+00
   337  3.3600000000000D+00  0.0000000000000D+00  0.0000000000000D+00
   338  3.3700000000000D+00  0.0000000000000D+00  0.0000000000000D+00
   339  3.3800000000000D+00  0.0000000000000D+00  0.0000000000000D+00
   340  3.3900000000000D+00  0.0000000000000D+00  0.0000000000000D+00
   341  3.4000000000000D+00  0.0000000000000D+00  0.0000000000000D+00
   342  3.4100000000000D+00  0.0000000000000D+00  0.0000000000000D+00
   343  3.4200000000000D+00  0.0000000000000D+00  0.0000000000000D+00
   344  3.4300000000000D+00  0.0000000000000D+00  0.0000000000000D+00
   345  3.4400000000000D+00  0.0000000000000D+00  0.0000000000000D+00
   346  3.4500000000000D+00  0.0000000000000D+00  0.0000000000000D+00
   347  3.4600000000000D+00  0.0000000000000D+00  0.0000000000000D+00
   348  3.4700000000000D+00  0.0000000000000D+00  0.0000000000000D+00
   349  3.4800000000000D+00  0.0000000000000D+00  0.0000000000000D+00
   350  3.4900000000000D+00  0.0000000000000D+00  0.0000000000000D+00
   351  3.5000000000000D+00  0.0000000000000D+00  0.0000000000000D+00
   352  3.5100000000000D+00  0.0000000000000D+00  0.0000000000000D+00
   353  3.5200000000000D+00  0.0000000000000D+00  0.0000000000000D+00
   354  3.5300000000000D+00  0.0000000000000D+00  0.0000000000000D+00
   355  3.5400000000000D+00  0.0000000000000D+00  0.0000000000000D+00
   356  3.5500000000000D+00  0.0000000000000D+00  0.0000000000000D+00
   357  3.5600000000000D+00  0.0000000000000D+00  0.0000000000000D+00
   358  3.5700000000000D+00  0.0000000000000D+00  0.0000000000000D+00
   359  3.5800000000000D+00  0.0000000000000D+00  0.0000000000000D+00
   360  3.5900000000000D+00  0.0000000000000D+00  0.0000000000000D+00
   361  3.6000000000000D+00  0.0000000000000D+00  0.0000000000000D+00
   362  3.6100000000000D+00  0.0000000000000D+00  0.0000000000000D+00
   363  3.6200000000000D+00  0.0000000000000D+00  0.0000000000000D+00
   364  3.6300000000000D+00  0.0000000000000D+00  0.0000000000000D+00
   365  3.6400000000000D+00  0.0000000000000D+00  0.0000000000000D+00
   366  3.6500000000000D+00  0.0000000000000D+00  0.0000000000000D+00
   367  3.6600000000000D+00  0.0000000000000D+00  0.0000000000000D+00
   368  3.6700000000000D+00  0.0000000000000D+00  0.0000000000000D+00
   369  3.6800000000000D+00  0.0000000000000D+00  0.0000000000000D+00
   370  3.6900000000000D+00  0.0000000000000D+00  0.0000000000000D+00
   371  3.7000000000000D+00  0.0000000000000D+00  0.0000000000000D+00
   372  3.7100000000000D+00  0.0000000000000D+00  0.0000000000000D+00
   373  3.7200000000000D+00  0.0000000000000D+00  0.0000000000000D+00
   374  3.7300000000000D+00  0.0000000000000D+00  0.0000000000000D+00
   375  3.7400000000000D+00  0.0000000000000D+00  0.0000000000000D+00
   376  3.7500000000000D+00  0.0000000000000D+00  0.0000000000000D+00
   377  3.7600000000000D+00  0.0000000000000D+00  0.0000000000000D+00
   378  3.7700000000000D+00  0.0000000000000D+00  0.0000000000000D+00
   379  3.7800000000000D+00  0.0000000000000D+00  0.0000000000000D+00
   380  3.7900000000000D+00  0.0000000000000D+00  0.0000000000000D+00
   381  3.8000000000000D+00  0.0000000000000D+00  0.0000000000000D+00
   382  3.8100000000000D+00  0.0000000000000D+00  0.0000000000000D+00
   383  3.8200000000000D+00  0.0000000000000D+00  0.0000000000000D+00
   384  3.8300000000000D+00  0.0000000000000D+00  0.0000000000000D+00
   385  3.8400000000000D+00  0.0000000000000D+00  0.0000000000000D+00
   386  3.8500000000000D+00  0.0000000000000D+00  0.0000000000000D+00
   387  3.8600000000000D+00  0.0000000000000D+00  0.0000000000000D+00
   388  3.8700000000000D+00  0.0000000000000D+00  0.0000000000000D+00
   389  3.8800000000000D+00  0.0000000000000D+00  0.0000000000000D+00
   390  3.8900000000000D+00  0.0000000000000D+00  0.0000000000000D+00
   391  3.9000000000000D+00  0.0000000000000D+00  0.0000000000000D+00
   392  3.9100000000000D+00  0.0000000000000D+00  0.0000000000000D+00
   393  3.9200000000000D+00  0.0000000000000D+00  0.0000000000000D+00
   394  3.9300000000000D+00  0.0000000000000D+00  0.0000000000000D+00
   395  3.9400000000000D+00  0.0000000000000D+00  0.0000000000000D+00
   396  3.9500000000000D+00  0.0000000000000D+00  0.0000000000000D+00
   397  3.9600000000000D+00  0.0000000000000D+00  0.0000000000000D+00
   398  3.9700000000000D+00  0.0000000000000D+00  0.0000000000000D+00
   399  3.9800000000000D+00  0.0000000000000D+00  0.0000000000000D+00
   400  3.9900000000000D+00  0.0000000000000D+00  0.0000000000000D+00
   401  4.0000000000000D+00  0.0000000000000D+00  0.0000000000000D+00
   402  4.0100000000000D+00  0.0000000000000D+00  0.0000000000000D+00
   403  4.0200000000000D+00  0.0000000000000D+00  0.0000000000000D+00
   404  4.0300000000000D+00  0.0000000000000D+00  0.0000000000000D+00
   405  4.0400000000000D+00  0.0000000000000D+00  0.0000000000000D+00
   406  4.0500000000000D+00  0.0000000000000D+00  0.0000000000000D+00
   407  4.0600000000000D+00  0.0000000000000D+00  0.0000000000000D+00
   408  4.0700000000000D+00  0.0000000000000D+00  0.0000000000000D+00
   409  4.0800000000000D+00  0.0000000000000D+00  0.0000000000000D+00
   410  4.0900000000000D+00  0.0000000000000D+00  0.0000000000000D+00
   411  4.1000000000000D+00  0.0000000000000D+00  0.0000000000000D+00
   412  4.1100000000000D+00  0.0000000000000D+00  0.0000000000000D+00
   413  4.1200000000000D+00  0.0000000000000D+00  0.0000000000000D+00
   414  4.1300000000000D+00  0.0000000000000D+00  0.0000000000000D+00
   415  4.1400000000000D+00  0.0000000000000D+00  0.0000000000000D+00
   416  4.1500000000000D+00  0.0000000000000D+00  0.0000000000000D+00
   417  4.1600000000000D+00  0.0000000000000D+00  0.0000000000000D+00
   418  4.1700000000000D+00  0.0000000000000D+00  0.0000000000000D+00
   419  4.1800000000000D+00  0.0000000000000D+00  0.0000000000000D+00
   420  4.1900000000000D+00  0.0000000000000D+00  0.0000000000000D+00
   421  4.2000000000000D+00  0.0000000000000D+00  0.0000000000000D+00
   422  4.2100000000000D+00  0.0000000000000D+00  0.0000000000000D+00