Ag    ONCVPSP-3.3.0  r_core=   1.41384   1.46535   1.61207
     47.0000     19.0000      220117    zatom,zion,pspd
     8      11   2     4   600     0    pspcod,pspxc,lmax,lloc,mmax,r2well
  5.99000000  0.00000000  0.00000000    rchrg fchrg qchrg
     2     2     2     0     0    nproj
     1     1           extension_switch
   0                         9.5575656381850D+00 -4.1474188756897D-01
     1  0.0000000000000D+00 -3.3385183506596D-11 -3.1734342931244D-09
     2  1.0000000000000D-02  7.8494028850967D-02  7.3986952510792D-02
     3  2.0000000000000D-02  1.5680340851746D-01  1.4744734262076D-01
     4  3.0000000000000D-02  2.3474403272219D-01  2.1985935793162D-01
     5  4.0000000000000D-02  3.1213287920357D-01  2.9071062830383D-01
     6  5.0000000000000D-02  3.8878854723559D-01  3.5950280344400D-01
     7  6.0000000000000D-02  4.6453178978597D-01  4.2575596053575D-01
     8  7.0000000000000D-02  5.3918603856510D-01  4.8901278904886D-01
     9  8.0000000000000D-02  6.1257792025145D-01  5.4884250303480D-01
    10  9.0000000000000D-02  6.8453776222042D-01  6.0484443509464D-01
    11  1.0000000000000D-01  7.5490008615147D-01  6.5665127072964D-01
    12  1.1000000000000D-01  8.2350408794358D-01  7.0393188688864D-01
    13  1.2000000000000D-01  8.9019410242984D-01  7.4639376413389D-01
    14  1.3000000000000D-01  9.5482005144826D-01  7.8378494787489D-01
    15  1.4000000000000D-01  1.0172378738971D+00  8.1589554047840D-01
    16  1.5000000000000D-01  1.0773099364782D+00  8.4255871265702D-01
    17  1.6000000000000D-01  1.1349054239096D+00  8.6365122927115D-01
    18  1.7000000000000D-01  1.1899007074708D+00  8.7909349144914D-01
    19  1.8000000000000D-01  1.2421796908249D+00  8.8884910363567D-01
    20  1.9000000000000D-01  1.2916341321473D+00  8.9292398072121D-01
    21  2.0000000000000D-01  1.3381639416748D+00  8.9136501668480D-01
    22  2.1000000000000D-01  1.3816774538704D+00  8.8425834210770D-01
    23  2.2000000000000D-01  1.4220916734858D+00  8.7172720339441D-01
    24  2.3000000000000D-01  1.4593324948827D+00  8.5392950149043D-01
    25  2.4000000000000D-01  1.4933348940550D+00  8.3105503223811D-01
    26  2.5000000000000D-01  1.5240430928723D+00  8.0332247419554D-01
    27  2.6000000000000D-01  1.5514106951385D+00  7.7097617270643D-01
    28  2.7000000000000D-01  1.5754007941359D+00  7.3428277120433D-01
    29  2.8000000000000D-01  1.5959860513915D+00  6.9352774212963D-01
    30  2.9000000000000D-01  1.6131487464719D+00  6.4901187041430D-01
    31  3.0000000000000D-01  1.6268807976787D+00  6.0104774223412D-01
    32  3.1000000000000D-01  1.6371837535773D+00  5.4995629065174D-01
    33  3.2000000000000D-01  1.6440687553548D+00  4.9606344788791D-01
    34  3.3000000000000D-01  1.6475564700594D+00  4.3969695129674D-01
    35  3.4000000000000D-01  1.6476769948348D+00  3.8118334672296D-01
    36  3.5000000000000D-01  1.6444697323166D+00  3.2084522883935D-01
    37  3.6000000000000D-01  1.6379832374178D+00  2.5899875336712D-01
    38  3.7000000000000D-01  1.6282750357875D+00  1.9595145084045D-01
    39  3.8000000000000D-01  1.6154114142825D+00  1.3200036587847D-01
    40  3.9000000000000D-01  1.5994671838570D+00  6.7430539858760D-02
    41  4.0000000000000D-01  1.5805254153335D+00  2.5138485467731D-03
    42  4.1000000000000D-01  1.5586771485858D+00 -6.2491800273936D-02
    43  4.2000000000000D-01  1.5340210757334D+00 -1.2734291069933D-01
    44  4.3000000000000D-01  1.5066631990193D+00 -1.9181049218921D-01
    45  4.4000000000000D-01  1.4767164641196D+00 -2.5567981707789D-01
    46  4.5000000000000D-01  1.4443003697171D+00 -3.1874986267450D-01
    47  4.6000000000000D-01  1.4095405542530D+00 -3.8083246428244D-01
    48  4.7000000000000D-01  1.3725683608690D+00 -4.4175121077807D-01
    49  4.8000000000000D-01  1.3335203816397D+00 -5.0134011915196D-01
    50  4.9000000000000D-01  1.2925379823047D+00 -5.5944212854974D-01
    51  5.0000000000000D-01  1.2497668088070D+00 -6.1590745778106D-01
    52  5.1000000000000D-01  1.2053562770593D+00 -6.7059187292734D-01
    53  5.2000000000000D-01  1.1594590474668D+00 -7.2335491352696D-01
    54  5.3000000000000D-01  1.1122304858531D+00 -7.7405812680476D-01
    55  5.4000000000000D-01  1.0638281125494D+00 -8.2256335952142D-01
    56  5.5000000000000D-01  1.0144110415231D+00 -8.6873115623208D-01
    57  5.6000000000000D-01  9.6413941153736D-01 -9.1241931107019D-01
    58  5.7000000000000D-01  9.1317381144517D-01 -9.5348161762109D-01
    59  5.8000000000000D-01  8.6167470183060D-01 -9.9176685806836D-01
    60  5.9000000000000D-01  8.0980183531193D-01 -1.0271180686032D+00
    61  6.0000000000000D-01  7.5771367791825D-01 -1.0593721131814D+00
    62  6.1000000000000D-01  7.0556683403780D-01 -1.0883595921219D+00
    63  6.2000000000000D-01  6.5351547751277D-01 -1.1139051058832D+00
    64  6.3000000000000D-01  6.0171079151948D-01 -1.1358278877232D+00
    65  6.4000000000000D-01  5.5030041992274D-01 -1.1539428118985D+00
    66  6.5000000000000D-01  4.9942793282760D-01 -1.1680617767999D+00
    67  6.6000000000000D-01  4.4923230906834D-01 -1.1779954549558D+00
    68  6.7000000000000D-01  3.9984743837254D-01 -1.1835553943689D+00
    69  6.8000000000000D-01  3.5140164591597D-01 -1.1845564482879D+00
    70  6.9000000000000D-01  3.0401724194013D-01 -1.1808195033588D+00
    71  7.0000000000000D-01  2.5781009903831D-01 -1.1721744692873D+00
    72  7.1000000000000D-01  2.1288925962652D-01 -1.1584634868088D+00
    73  7.2000000000000D-01  1.6935657600287D-01 -1.1395443050022D+00
    74  7.3000000000000D-01  1.2730638526185D-01 -1.1152937739126D+00
    75  7.4000000000000D-01  8.6825221168785D-02 -1.0856113941480D+00
    76  7.5000000000000D-01  4.7991564915132D-02 -1.0504228617158D+00
    77  7.6000000000000D-01  1.0875636467533D-02 -1.0096835438918D+00
    78  7.7000000000000D-01 -2.4460772006406D-02 -9.6338182045824D-01
    79  7.8000000000000D-01 -5.7964419403810D-02 -9.1154222425264D-01
    80  7.9000000000000D-01 -8.9590694681367D-02 -8.5422831564829D-01
    81  8.0000000000000D-01 -1.1930365090530D-01 -7.9154522737360D-01
    82  8.1000000000000D-01 -1.4707599398528D-01 -7.2364181896299D-01
    83  8.2000000000000D-01 -1.7288902603685D-01 -6.5071238408081D-01
    84  8.3000000000000D-01 -1.9673254364288D-01 -5.7299785895269D-01
    85  8.4000000000000D-01 -2.1860469161799D-01 -4.9078648610789D-01
    86  8.5000000000000D-01 -2.3851177321704D-01 -4.0441389451255D-01
    87  8.6000000000000D-01 -2.5646801806690D-01 -3.1426256486943D-01
    88  8.7000000000000D-01 -2.7249530943581D-01 -2.2076065727239D-01
    89  8.8000000000000D-01 -2.8662287278398D-01 -1.2438018741502D-01
    90  8.9000000000000D-01 -2.9888692785782D-01 -2.5634547039167D-02
    91  9.0000000000000D-01 -3.0933030689599D-01  7.4924625871028D-02
    92  9.1000000000000D-01 -3.1800204180352D-01  1.7671121163246D-01
    93  9.2000000000000D-01 -3.2495692341849D-01  2.7910898257997D-01
    94  9.3000000000000D-01 -3.3025503623885D-01  3.8147655044903D-01
    95  9.4000000000000D-01 -3.3396127219416D-01  4.8315284224010D-01
    96  9.5000000000000D-01 -3.3614482723160D-01  5.8346305022199D-01
    97  9.6000000000000D-01 -3.3687868464122D-01  6.8172499293096D-01
    98  9.7000000000000D-01 -3.3623908916147D-01  7.7725581619184D-01
    99  9.8000000000000D-01 -3.3430501598707D-01  8.6937895605353D-01
   100  9.9000000000000D-01 -3.3115763884298D-01  9.5743127943446D-01
   101  1.0000000000000D+00 -3.2687980128908D-01  1.0407703132631D+00
   102  1.0100000000000D+00 -3.2155549538069D-01  1.1187814690729D+00
   103  1.0200000000000D+00 -3.1526935172507D-01  1.1908851675180D+00
   104  1.0300000000000D+00 -3.0810614486071D-01  1.2565437660013D+00
   105  1.0400000000000D+00 -3.0015031771132D-01  1.3152681928185D+00
   106  1.0500000000000D+00 -2.9148552867135D-01  1.3666241928285D+00
   107  1.0600000000000D+00 -2.8219422463891D-01  1.4102380925881D+00
   108  1.0700000000000D+00 -2.7235724302210D-01  1.4458019975992D+00
   109  1.0800000000000D+00 -2.6205344546387D-01  1.4730783394763D+00
   110  1.0900000000000D+00 -2.5135938566442D-01  1.4919036983765D+00
   111  1.1000000000000D+00 -2.4034901332224D-01  1.5021918342011D+00
   112  1.1100000000000D+00 -2.2909341582863D-01  1.5039358693689D+00
   113  1.1200000000000D+00 -2.1766059892050D-01  1.4972095769910D+00
   114  1.1300000000000D+00 -2.0611530714246D-01  1.4821677375530D+00
   115  1.1400000000000D+00 -1.9451888443832D-01  1.4590455419617D+00
   116  1.1500000000000D+00 -1.8292917482628D-01  1.4281570294096D+00
   117  1.1600000000000D+00 -1.7140046262663D-01  1.3898925629073D+00
   118  1.1700000000000D+00 -1.5998345137572D-01  1.3447153553600D+00
   119  1.1800000000000D+00 -1.4872527999811D-01  1.2931570766497D+00
   120  1.1900000000000D+00 -1.3766957448232D-01  1.2358125828248D+00
   121  1.2000000000000D+00 -1.2685653294830D-01  1.1733338200663D+00
   122  1.2100000000000D+00 -1.1632304158555D-01  1.1064229696881D+00
   123  1.2200000000000D+00 -1.0610281858663D-01  1.0358249127280D+00
   124  1.2300000000000D+00 -9.6226582943505D-02  9.6231910185977D-01
   125  1.2400000000000D+00 -8.6722244759351D-02  8.8671093575927D-01
   126  1.2500000000000D+00 -7.7615113363713D-02  8.0982274468251D-01
   127  1.2600000000000D+00 -6.8928119459461D-02  7.3248449892916D-01
   128  1.2700000000000D+00 -6.0682047396529D-02  6.5552435647468D-01
   129  1.2800000000000D+00 -5.2895773465804D-02  5.7975917512558D-01
   130  1.2900000000000D+00 -4.5586506226450D-02  5.0598511117787D-01
   131  1.3000000000000D+00 -3.8770024741377D-02  4.3496843138256D-01
   132  1.3100000000000D+00 -3.2460910726034D-02  3.6743666328604D-01
   133  1.3200000000000D+00 -2.6672770818264D-02  3.0407020228708D-01
   134  1.3300000000000D+00 -2.1418445018376D-02  2.4549449950844D-01
   135  1.3400000000000D+00 -1.6710197945400D-02  1.9227293684973D-01
   136  1.3500000000000D+00 -1.2559889588247D-02  1.4490049389670D-01
   137  1.3600000000000D+00 -8.9791222867320D-03  1.0379831052589D-01
   138  1.3700000000000D+00 -5.9810283652719D-03  6.9329124396332D-02
   139  1.3800000000000D+00 -3.5722583770903D-03  4.1697064789836D-02
   140  1.3900000000000D+00 -1.7568054598157D-03  2.0979845979962D-02
   141  1.4000000000000D+00 -5.9558430943464D-04  7.9248085082299D-03
   142  1.4100000000000D+00 -5.5096298548468D-05  1.9247138317747D-03
   143  1.4200000000000D+00  6.2815890500446D-05  1.0844582834984D-04
   144  1.4300000000000D+00  5.4465017732633D-06 -1.3189733571097D-05
   145  1.4400000000000D+00 -1.6230236324627D-05  5.7604940993523D-05
   146  1.4500000000000D+00  1.3224925988166D-06 -2.1212517528668D-06
   147  1.4600000000000D+00  2.4928518054025D-06 -5.4572192574671D-06
   148  1.4700000000000D+00 -6.1482938877235D-08 -2.0680335970470D-06
   149  1.4800000000000D+00 -3.6530904006442D-08 -1.2287496042872D-06
   150  1.4900000000000D+00  0.0000000000000D+00  0.0000000000000D+00
   151  1.5000000000000D+00  0.0000000000000D+00  0.0000000000000D+00
   152  1.5100000000000D+00  0.0000000000000D+00  0.0000000000000D+00
   153  1.5200000000000D+00  0.0000000000000D+00  0.0000000000000D+00
   154  1.5300000000000D+00  0.0000000000000D+00  0.0000000000000D+00
   155  1.5400000000000D+00  0.0000000000000D+00  0.0000000000000D+00
   156  1.5500000000000D+00  0.0000000000000D+00  0.0000000000000D+00
   157  1.5600000000000D+00  0.0000000000000D+00  0.0000000000000D+00
   158  1.5700000000000D+00  0.0000000000000D+00  0.0000000000000D+00
   159  1.5800000000000D+00  0.0000000000000D+00  0.0000000000000D+00
   160  1.5900000000000D+00  0.0000000000000D+00  0.0000000000000D+00
   161  1.6000000000000D+00  0.0000000000000D+00  0.0000000000000D+00
   162  1.6100000000000D+00  0.0000000000000D+00  0.0000000000000D+00
   163  1.6200000000000D+00  0.0000000000000D+00  0.0000000000000D+00
   164  1.6300000000000D+00  0.0000000000000D+00  0.0000000000000D+00
   165  1.6400000000000D+00  0.0000000000000D+00  0.0000000000000D+00
   166  1.6500000000000D+00  0.0000000000000D+00  0.0000000000000D+00
   167  1.6600000000000D+00  0.0000000000000D+00  0.0000000000000D+00
   168  1.6700000000000D+00  0.0000000000000D+00  0.0000000000000D+00
   169  1.6800000000000D+00  0.0000000000000D+00  0.0000000000000D+00
   170  1.6900000000000D+00  0.0000000000000D+00  0.0000000000000D+00
   171  1.7000000000000D+00  0.0000000000000D+00  0.0000000000000D+00
   172  1.7100000000000D+00  0.0000000000000D+00  0.0000000000000D+00
   173  1.7200000000000D+00  0.0000000000000D+00  0.0000000000000D+00
   174  1.7300000000000D+00  0.0000000000000D+00  0.0000000000000D+00
   175  1.7400000000000D+00  0.0000000000000D+00  0.0000000000000D+00
   176  1.7500000000000D+00  0.0000000000000D+00  0.0000000000000D+00
   177  1.7600000000000D+00  0.0000000000000D+00  0.0000000000000D+00
   178  1.7700000000000D+00  0.0000000000000D+00  0.0000000000000D+00
   179  1.7800000000000D+00  0.0000000000000D+00  0.0000000000000D+00
   180  1.7900000000000D+00  0.0000000000000D+00  0.0000000000000D+00
   181  1.8000000000000D+00  0.0000000000000D+00  0.0000000000000D+00
   182  1.8100000000000D+00  0.0000000000000D+00  0.0000000000000D+00
   183  1.8200000000000D+00  0.0000000000000D+00  0.0000000000000D+00
   184  1.8300000000000D+00  0.0000000000000D+00  0.0000000000000D+00
   185  1.8400000000000D+00  0.0000000000000D+00  0.0000000000000D+00
   186  1.8500000000000D+00  0.0000000000000D+00  0.0000000000000D+00
   187  1.8600000000000D+00  0.0000000000000D+00  0.0000000000000D+00
   188  1.8700000000000D+00  0.0000000000000D+00  0.0000000000000D+00
   189  1.8800000000000D+00  0.0000000000000D+00  0.0000000000000D+00
   190  1.8900000000000D+00  0.0000000000000D+00  0.0000000000000D+00
   191  1.9000000000000D+00  0.0000000000000D+00  0.0000000000000D+00
   192  1.9100000000000D+00  0.0000000000000D+00  0.0000000000000D+00
   193  1.9200000000000D+00  0.0000000000000D+00  0.0000000000000D+00
   194  1.9300000000000D+00  0.0000000000000D+00  0.0000000000000D+00
   195  1.9400000000000D+00  0.0000000000000D+00  0.0000000000000D+00
   196  1.9500000000000D+00  0.0000000000000D+00  0.0000000000000D+00
   197  1.9600000000000D+00  0.0000000000000D+00  0.0000000000000D+00
   198  1.9700000000000D+00  0.0000000000000D+00  0.0000000000000D+00
   199  1.9800000000000D+00  0.0000000000000D+00  0.0000000000000D+00
   200  1.9900000000000D+00  0.0000000000000D+00  0.0000000000000D+00
   201  2.0000000000000D+00  0.0000000000000D+00  0.0000000000000D+00
   202  2.0100000000000D+00  0.0000000000000D+00  0.0000000000000D+00
   203  2.0200000000000D+00  0.0000000000000D+00  0.0000000000000D+00
   204  2.0300000000000D+00  0.0000000000000D+00  0.0000000000000D+00
   205  2.0400000000000D+00  0.0000000000000D+00  0.0000000000000D+00
   206  2.0500000000000D+00  0.0000000000000D+00  0.0000000000000D+00
   207  2.0600000000000D+00  0.0000000000000D+00  0.0000000000000D+00
   208  2.0700000000000D+00  0.0000000000000D+00  0.0000000000000D+00
   209  2.0800000000000D+00  0.0000000000000D+00  0.0000000000000D+00
   210  2.0900000000000D+00  0.0000000000000D+00  0.0000000000000D+00
   211  2.1000000000000D+00  0.0000000000000D+00  0.0000000000000D+00
   212  2.1100000000000D+00  0.0000000000000D+00  0.0000000000000D+00
   213  2.1200000000000D+00  0.0000000000000D+00  0.0000000000000D+00
   214  2.1300000000000D+00  0.0000000000000D+00  0.0000000000000D+00
   215  2.1400000000000D+00  0.0000000000000D+00  0.0000000000000D+00
   216  2.1500000000000D+00  0.0000000000000D+00  0.0000000000000D+00
   217  2.1600000000000D+00  0.0000000000000D+00  0.0000000000000D+00
   218  2.1700000000000D+00  0.0000000000000D+00  0.0000000000000D+00
   219  2.1800000000000D+00  0.0000000000000D+00  0.0000000000000D+00
   220  2.1900000000000D+00  0.0000000000000D+00  0.0000000000000D+00
   221  2.2000000000000D+00  0.0000000000000D+00  0.0000000000000D+00
   222  2.2100000000000D+00  0.0000000000000D+00  0.0000000000000D+00
   223  2.2200000000000D+00  0.0000000000000D+00  0.0000000000000D+00
   224  2.2300000000000D+00  0.0000000000000D+00  0.0000000000000D+00
   225  2.2400000000000D+00  0.0000000000000D+00  0.0000000000000D+00
   226  2.2500000000000D+00  0.0000000000000D+00  0.0000000000000D+00
   227  2.2600000000000D+00  0.0000000000000D+00  0.0000000000000D+00
   228  2.2700000000000D+00  0.0000000000000D+00  0.0000000000000D+00
   229  2.2800000000000D+00  0.0000000000000D+00  0.0000000000000D+00
   230  2.2900000000000D+00  0.0000000000000D+00  0.0000000000000D+00
   231  2.3000000000000D+00  0.0000000000000D+00  0.0000000000000D+00
   232  2.3100000000000D+00  0.0000000000000D+00  0.0000000000000D+00
   233  2.3200000000000D+00  0.0000000000000D+00  0.0000000000000D+00
   234  2.3300000000000D+00  0.0000000000000D+00  0.0000000000000D+00
   235  2.3400000000000D+00  0.0000000000000D+00  0.0000000000000D+00
   236  2.3500000000000D+00  0.0000000000000D+00  0.0000000000000D+00
   237  2.3600000000000D+00  0.0000000000000D+00  0.0000000000000D+00
   238  2.3700000000000D+00  0.0000000000000D+00  0.0000000000000D+00
   239  2.3800000000000D+00  0.0000000000000D+00  0.0000000000000D+00
   240  2.3900000000000D+00  0.0000000000000D+00  0.0000000000000D+00
   241  2.4000000000000D+00  0.0000000000000D+00  0.0000000000000D+00
   242  2.4100000000000D+00  0.0000000000000D+00  0.0000000000000D+00
   243  2.4200000000000D+00  0.0000000000000D+00  0.0000000000000D+00
   244  2.4300000000000D+00  0.0000000000000D+00  0.0000000000000D+00
   245  2.4400000000000D+00  0.0000000000000D+00  0.0000000000000D+00
   246  2.4500000000000D+00  0.0000000000000D+00  0.0000000000000D+00
   247  2.4600000000000D+00  0.0000000000000D+00  0.0000000000000D+00
   248  2.4700000000000D+00  0.0000000000000D+00  0.0000000000000D+00
   249  2.4800000000000D+00  0.0000000000000D+00  0.0000000000000D+00
   250  2.4900000000000D+00  0.0000000000000D+00  0.0000000000000D+00
   251  2.5000000000000D+00  0.0000000000000D+00  0.0000000000000D+00
   252  2.5100000000000D+00  0.0000000000000D+00  0.0000000000000D+00
   253  2.5200000000000D+00  0.0000000000000D+00  0.0000000000000D+00
   254  2.5300000000000D+00  0.0000000000000D+00  0.0000000000000D+00
   255  2.5400000000000D+00  0.0000000000000D+00  0.0000000000000D+00
   256  2.5500000000000D+00  0.0000000000000D+00  0.0000000000000D+00
   257  2.5600000000000D+00  0.0000000000000D+00  0.0000000000000D+00
   258  2.5700000000000D+00  0.0000000000000D+00  0.0000000000000D+00
   259  2.5800000000000D+00  0.0000000000000D+00  0.0000000000000D+00
   260  2.5900000000000D+00  0.0000000000000D+00  0.0000000000000D+00
   261  2.6000000000000D+00  0.0000000000000D+00  0.0000000000000D+00
   262  2.6100000000000D+00  0.0000000000000D+00  0.0000000000000D+00
   263  2.6200000000000D+00  0.0000000000000D+00  0.0000000000000D+00
   264  2.6300000000000D+00  0.0000000000000D+00  0.0000000000000D+00
   265  2.6400000000000D+00  0.0000000000000D+00  0.0000000000000D+00
   266  2.6500000000000D+00  0.0000000000000D+00  0.0000000000000D+00
   267  2.6600000000000D+00  0.0000000000000D+00  0.0000000000000D+00
   268  2.6700000000000D+00  0.0000000000000D+00  0.0000000000000D+00
   269  2.6800000000000D+00  0.0000000000000D+00  0.0000000000000D+00
   270  2.6900000000000D+00  0.0000000000000D+00  0.0000000000000D+00
   271  2.7000000000000D+00  0.0000000000000D+00  0.0000000000000D+00
   272  2.7100000000000D+00  0.0000000000000D+00  0.0000000000000D+00
   273  2.7200000000000D+00  0.0000000000000D+00  0.0000000000000D+00
   274  2.7300000000000D+00  0.0000000000000D+00  0.0000000000000D+00
   275  2.7400000000000D+00  0.0000000000000D+00  0.0000000000000D+00
   276  2.7500000000000D+00  0.0000000000000D+00  0.0000000000000D+00
   277  2.7600000000000D+00  0.0000000000000D+00  0.0000000000000D+00
   278  2.7700000000000D+00  0.0000000000000D+00  0.0000000000000D+00
   279  2.7800000000000D+00  0.0000000000000D+00  0.0000000000000D+00
   280  2.7900000000000D+00  0.0000000000000D+00  0.0000000000000D+00
   281  2.8000000000000D+00  0.0000000000000D+00  0.0000000000000D+00
   282  2.8100000000000D+00  0.0000000000000D+00  0.0000000000000D+00
   283  2.8200000000000D+00  0.0000000000000D+00  0.0000000000000D+00
   284  2.8300000000000D+00  0.0000000000000D+00  0.0000000000000D+00
   285  2.8400000000000D+00  0.0000000000000D+00  0.0000000000000D+00
   286  2.8500000000000D+00  0.0000000000000D+00  0.0000000000000D+00
   287  2.8600000000000D+00  0.0000000000000D+00  0.0000000000000D+00
   288  2.8700000000000D+00  0.0000000000000D+00  0.0000000000000D+00
   289  2.8800000000000D+00  0.0000000000000D+00  0.0000000000000D+00
   290  2.8900000000000D+00  0.0000000000000D+00  0.0000000000000D+00
   291  2.9000000000000D+00  0.0000000000000D+00  0.0000000000000D+00
   292  2.9100000000000D+00  0.0000000000000D+00  0.0000000000000D+00
   293  2.9200000000000D+00  0.0000000000000D+00  0.0000000000000D+00
   294  2.9300000000000D+00  0.0000000000000D+00  0.0000000000000D+00
   295  2.9400000000000D+00  0.0000000000000D+00  0.0000000000000D+00
   296  2.9500000000000D+00  0.0000000000000D+00  0.0000000000000D+00
   297  2.9600000000000D+00  0.0000000000000D+00  0.0000000000000D+00
   298  2.9700000000000D+00  0.0000000000000D+00  0.0000000000000D+00
   299  2.9800000000000D+00  0.0000000000000D+00  0.0000000000000D+00
   300  2.9900000000000D+00  0.0000000000000D+00  0.0000000000000D+00
   301  3.0000000000000D+00  0.0000000000000D+00  0.0000000000000D+00
   302  3.0100000000000D+00  0.0000000000000D+00  0.0000000000000D+00
   303  3.0200000000000D+00  0.0000000000000D+00  0.0000000000000D+00
   304  3.0300000000000D+00  0.0000000000000D+00  0.0000000000000D+00
   305  3.0400000000000D+00  0.0000000000000D+00  0.0000000000000D+00
   306  3.0500000000000D+00  0.0000000000000D+00  0.0000000000000D+00
   307  3.0600000000000D+00  0.0000000000000D+00  0.0000000000000D+00
   308  3.0700000000000D+00  0.0000000000000D+00  0.0000000000000D+00
   309  3.0800000000000D+00  0.0000000000000D+00  0.0000000000000D+00
   310  3.0900000000000D+00  0.0000000000000D+00  0.0000000000000D+00
   311  3.1000000000000D+00  0.0000000000000D+00  0.0000000000000D+00
   312  3.1100000000000D+00  0.0000000000000D+00  0.0000000000000D+00
   313  3.1200000000000D+00  0.0000000000000D+00  0.0000000000000D+00
   314  3.1300000000000D+00  0.0000000000000D+00  0.0000000000000D+00
   315  3.1400000000000D+00  0.0000000000000D+00  0.0000000000000D+00
   316  3.1500000000000D+00  0.0000000000000D+00  0.0000000000000D+00
   317  3.1600000000000D+00  0.0000000000000D+00  0.0000000000000D+00
   318  3.1700000000000D+00  0.0000000000000D+00  0.0000000000000D+00
   319  3.1800000000000D+00  0.0000000000000D+00  0.0000000000000D+00
   320  3.1900000000000D+00  0.0000000000000D+00  0.0000000000000D+00
   321  3.2000000000000D+00  0.0000000000000D+00  0.0000000000000D+00
   322  3.2100000000000D+00  0.0000000000000D+00  0.0000000000000D+00
   323  3.2200000000000D+00  0.0000000000000D+00  0.0000000000000D+00
   324  3.2300000000000D+00  0.0000000000000D+00  0.0000000000000D+00
   325  3.2400000000000D+00  0.0000000000000D+00  0.0000000000000D+00
   326  3.2500000000000D+00  0.0000000000000D+00  0.0000000000000D+00
   327  3.2600000000000D+00  0.0000000000000D+00  0.0000000000000D+00
   328  3.2700000000000D+00  0.0000000000000D+00  0.0000000000000D+00
   329  3.2800000000000D+00  0.0000000000000D+00  0.0000000000000D+00
   330  3.2900000000000D+00  0.0000000000000D+00  0.0000000000000D+00
   331  3.3000000000000D+00  0.0000000000000D+00  0.0000000000000D+00
   332  3.3100000000000D+00  0.0000000000000D+00  0.0000000000000D+00
   333  3.3200000000000D+00  0.0000000000000D+00  0.0000000000000D+00
   334  3.3300000000000D+00  0.0000000000000D+00  0.0000000000000D+00
   335  3.3400000000000D+00  0.0000000000000D+00  0.0000000000000D+00
   336  3.3500000000000D+00  0.0000000000000D+00  0.0000000000000D+00
   337  3.3600000000000D+00  0.0000000000000D+00  0.0000000000000D+00
   338  3.3700000000000D+00  0.0000000000000D+00  0.0000000000000D+00
   339  3.3800000000000D+00  0.0000000000000D+00  0.0000000000000D+00
   340  3.3900000000000D+00  0.0000000000000D+00  0.0000000000000D+00
   341  3.4000000000000D+00  0.0000000000000D+00  0.0000000000000D+00
   342  3.4100000000000D+00  0.0000000000000D+00  0.0000000000000D+00
   343  3.4200000000000D+00  0.0000000000000D+00  0.0000000000000D+00
   344  3.4300000000000D+00  0.0000000000000D+00  0.0000000000000D+00
   345  3.4400000000000D+00  0.0000000000000D+00  0.0000000000000D+00
   346  3.4500000000000D+00  0.0000000000000D+00  0.0000000000000D+00
   347  3.4600000000000D+00  0.0000000000000D+00  0.0000000000000D+00
   348  3.4700000000000D+00  0.0000000000000D+00  0.0000000000000D+00
   349  3.4800000000000D+00  0.0000000000000D+00  0.0000000000000D+00
   350  3.4900000000000D+00  0.0000000000000D+00  0.0000000000000D+00
   351  3.5000000000000D+00  0.0000000000000D+00  0.0000000000000D+00
   352  3.5100000000000D+00  0.0000000000000D+00  0.0000000000000D+00
   353  3.5200000000000D+00  0.0000000000000D+00  0.0000000000000D+00
   354  3.5300000000000D+00  0.0000000000000D+00  0.0000000000000D+00
   355  3.5400000000000D+00  0.0000000000000D+00  0.0000000000000D+00
   356  3.5500000000000D+00  0.0000000000000D+00  0.0000000000000D+00
   357  3.5600000000000D+00  0.0000000000000D+00  0.0000000000000D+00
   358  3.5700000000000D+00  0.0000000000000D+00  0.0000000000000D+00
   359  3.5800000000000D+00  0.0000000000000D+00  0.0000000000000D+00
   360  3.5900000000000D+00  0.0000000000000D+00  0.0000000000000D+00
   361  3.6000000000000D+00  0.0000000000000D+00  0.0000000000000D+00
   362  3.6100000000000D+00  0.0000000000000D+00  0.0000000000000D+00
   363  3.6200000000000D+00  0.0000000000000D+00  0.0000000000000D+00
   364  3.6300000000000D+00  0.0000000000000D+00  0.0000000000000D+00
   365  3.6400000000000D+00  0.0000000000000D+00  0.0000000000000D+00
   366  3.6500000000000D+00  0.0000000000000D+00  0.0000000000000D+00
   367  3.6600000000000D+00  0.0000000000000D+00  0.0000000000000D+00
   368  3.6700000000000D+00  0.0000000000000D+00  0.0000000000000D+00
   369  3.6800000000000D+00  0.0000000000000D+00  0.0000000000000D+00
   370  3.6900000000000D+00  0.0000000000000D+00  0.0000000000000D+00
   371  3.7000000000000D+00  0.0000000000000D+00  0.0000000000000D+00
   372  3.7100000000000D+00  0.0000000000000D+00  0.0000000000000D+00
   373  3.7200000000000D+00  0.0000000000000D+00  0.0000000000000D+00
   374  3.7300000000000D+00  0.0000000000000D+00  0.0000000000000D+00
   375  3.7400000000000D+00  0.0000000000000D+00  0.0000000000000D+00
   376  3.7500000000000D+00  0.0000000000000D+00  0.0000000000000D+00
   377  3.7600000000000D+00  0.0000000000000D+00  0.0000000000000D+00
   378  3.7700000000000D+00  0.0000000000000D+00  0.0000000000000D+00
   379  3.7800000000000D+00  0.0000000000000D+00  0.0000000000000D+00
   380  3.7900000000000D+00  0.0000000000000D+00  0.0000000000000D+00
   381  3.8000000000000D+00  0.0000000000000D+00  0.0000000000000D+00
   382  3.8100000000000D+00  0.0000000000000D+00  0.0000000000000D+00
   383  3.8200000000000D+00  0.0000000000000D+00  0.0000000000000D+00
   384  3.8300000000000D+00  0.0000000000000D+00  0.0000000000000D+00
   385  3.8400000000000D+00  0.0000000000000D+00  0.0000000000000D+00
   386  3.8500000000000D+00  0.0000000000000D+00  0.0000000000000D+00
   387  3.8600000000000D+00  0.0000000000000D+00  0.0000000000000D+00
   388  3.8700000000000D+00  0.0000000000000D+00  0.0000000000000D+00
   389  3.8800000000000D+00  0.0000000000000D+00  0.0000000000000D+00
   390  3.8900000000000D+00  0.0000000000000D+00  0.0000000000000D+00
   391  3.9000000000000D+00  0.0000000000000D+00  0.0000000000000D+00
   392  3.9100000000000D+00  0.0000000000000D+00  0.0000000000000D+00
   393  3.9200000000000D+00  0.0000000000000D+00  0.0000000000000D+00
   394  3.9300000000000D+00  0.0000000000000D+00  0.0000000000000D+00
   395  3.9400000000000D+00  0.0000000000000D+00  0.0000000000000D+00
   396  3.9500000000000D+00  0.0000000000000D+00  0.0000000000000D+00
   397  3.9600000000000D+00  0.0000000000000D+00  0.0000000000000D+00
   398  3.9700000000000D+00  0.0000000000000D+00  0.0000000000000D+00
   399  3.9800000000000D+00  0.0000000000000D+00  0.0000000000000D+00
   400  3.9900000000000D+00  0.0000000000000D+00  0.0000000000000D+00
   401  4.0000000000000D+00  0.0000000000000D+00  0.0000000000000D+00
   402  4.0100000000000D+00  0.0000000000000D+00  0.0000000000000D+00
   403  4.0200000000000D+00  0.0000000000000D+00  0.0000000000000D+00
   404  4.0300000000000D+00  0.0000000000000D+00  0.0000000000000D+00
   405  4.0400000000000D+00  0.0000000000000D+00  0.0000000000000D+00
   406  4.0500000000000D+00  0.0000000000000D+00  0.0000000000000D+00
   407  4.0600000000000D+00  0.0000000000000D+00  0.0000000000000D+00
   408  4.0700000000000D+00  0.0000000000000D+00  0.0000000000000D+00
   409  4.0800000000000D+00  0.0000000000000D+00  0.0000000000000D+00
   410  4.0900000000000D+00  0.0000000000000D+00  0.0000000000000D+00
   411  4.1000000000000D+00  0.0000000000000D+00  0.0000000000000D+00
   412  4.1100000000000D+00  0.0000000000000D+00  0.0000000000000D+00
   413  4.1200000000000D+00  0.0000000000000D+00  0.0000000000000D+00
   414  4.1300000000000D+00  0.0000000000000D+00  0.0000000000000D+00
   415  4.1400000000000D+00  0.0000000000000D+00  0.0000000000000D+00
   416  4.1500000000000D+00  0.0000000000000D+00  0.0000000000000D+00
   417  4.1600000000000D+00  0.0000000000000D+00  0.0000000000000D+00
   418  4.1700000000000D+00  0.0000000000000D+00  0.0000000000000D+00
   419  4.1800000000000D+00  0.0000000000000D+00  0.0000000000000D+00
   420  4.1900000000000D+00  0.0000000000000D+00  0.0000000000000D+00
   421  4.2000000000000D+00  0.0000000000000D+00  0.0000000000000D+00
   422  4.2100000000000D+00  0.0000000000000D+00  0.0000000000000D+00