K     ONCVPSP-3.3.0  r_core=   1.36296   1.46408   1.61068
     19.0000      9.0000      220117    zatom,zion,pspd
     8      11   2     4   400     0    pspcod,pspxc,lmax,lloc,mmax,r2well
  3.99000000  0.00000000  0.00000000    rchrg fchrg qchrg
     2     2     2     0     0    nproj
     1     1           extension_switch
   0                         1.0871122603044D+01  8.0670373950259D-01
     1  0.0000000000000D+00  9.7199470694420D-11  2.3806068227827D-10
     2  1.0000000000000D-02  5.8220632467285D-02 -3.2151422119697D-02
     3  2.0000000000000D-02  1.1636998987730D-01 -6.4198748665099D-02
     4  3.0000000000000D-02  1.7437671457278D-01 -9.6038128377934D-02
     5  4.0000000000000D-02  2.3216928596906D-01 -1.2756619610903D-01
     6  5.0000000000000D-02  2.8967594474673D-01 -1.5868030962816D-01
     7  6.0000000000000D-02  3.4682462376246D-01 -1.8927877911421D-01
     8  7.0000000000000D-02  4.0354288780207D-01 -2.1926108717222D-01
     9  8.0000000000000D-02  4.5975788420300D-01 -2.4852809746194D-01
    10  9.0000000000000D-02  5.1539630625327D-01 -2.7698225031055D-01
    11  1.0000000000000D-01  5.7038437113387D-01 -3.0452774401603D-01
    12  1.1000000000000D-01  6.2464781401036D-01 -3.3107070091742D-01
    13  1.2000000000000D-01  6.7811189970134D-01 -3.5651931771018D-01
    14  1.3000000000000D-01  7.3070145315634D-01 -3.8078399990668D-01
    15  1.4000000000000D-01  7.8234090976671D-01 -4.0377748077824D-01
    16  1.5000000000000D-01  8.3295438631184D-01 -4.2541492555405D-01
    17  1.6000000000000D-01  8.8246577311211D-01 -4.4561402208606D-01
    18  1.7000000000000D-01  9.3079884772131D-01 -4.6429505960695D-01
    19  1.8000000000000D-01  9.7787741024793D-01 -4.8138099760137D-01
    20  1.9000000000000D-01  1.0236254401483D+00 -4.9679752716977D-01
    21  2.0000000000000D-01  1.0679672740890D+00 -5.1047312757996D-01
    22  2.1000000000000D-01  1.1108278042307D+00 -5.2233912096696D-01
    23  2.2000000000000D-01  1.1521326960497D+00 -5.3232972834776D-01
    24  2.3000000000000D-01  1.1918086245780D+00 -5.4038213025946D-01
    25  2.4000000000000D-01  1.2297835277239D+00 -5.4643653539986D-01
    26  2.5000000000000D-01  1.2659868751230D+00 -5.5043626064659D-01
    27  2.6000000000000D-01  1.3003499507758D+00 -5.5232782574839D-01
    28  2.7000000000000D-01  1.3328061475428D+00 -5.5206106582241D-01
    29  2.8000000000000D-01  1.3632912714117D+00 -5.4958926454946D-01
    30  2.9000000000000D-01  1.3917438533017D+00 -5.4486931064088D-01
    31  3.0000000000000D-01  1.4181054660498D+00 -5.3786187975483D-01
    32  3.1000000000000D-01  1.4423210441227D+00 -5.2853164357287D-01
    33  3.2000000000000D-01  1.4643392035166D+00 -5.1684750721410D-01
    34  3.3000000000000D-01  1.4841125592539D+00 -5.0278287557140D-01
    35  3.4000000000000D-01  1.5015980378520D+00 -4.8631594850876D-01
    36  3.5000000000000D-01  1.5167571821326D+00 -4.6743004417394D-01
    37  3.6000000000000D-01  1.5295564457547D+00 -4.4611394896035D-01
    38  3.7000000000000D-01  1.5399674748926D+00 -4.2236229191491D-01
    39  3.8000000000000D-01  1.5479673745457D+00 -3.9617594064130D-01
    40  3.9000000000000D-01  1.5535389570475D+00 -3.6756241500441D-01
    41  4.0000000000000D-01  1.5566709704490D+00 -3.3653631421734D-01
    42  4.1000000000000D-01  1.5573583045780D+00 -3.0311975219646D-01
    43  4.2000000000000D-01  1.5556021727182D+00 -2.6734279541826D-01
    44  4.3000000000000D-01  1.5514102670167D+00 -2.2924389691695D-01
    45  4.4000000000000D-01  1.5447968859035D+00 -1.8887031953457D-01
    46  4.5000000000000D-01  1.5357830320006D+00 -1.4627854109004D-01
    47  4.6000000000000D-01  1.5243964791980D+00 -1.0153463377730D-01
    48  4.7000000000000D-01  1.5106718077911D+00 -5.4714609851494D-02
    49  4.8000000000000D-01  1.4946504067930D+00 -5.9047255146614D-03
    50  4.9000000000000D-01  1.4763804427620D+00  4.4798265112556D-02
    51  5.0000000000000D-01  1.4559167947166D+00  9.7286913954645D-02
    52  5.1000000000000D-01  1.4333209549432D+00  1.5144294868080D-01
    53  5.2000000000000D-01  1.4086608957330D+00  2.0713721559500D-01
    54  5.3000000000000D-01  1.3820109023162D+00  2.6422970269557D-01
    55  5.4000000000000D-01  1.3534513724865D+00  3.2256964928475D-01
    56  5.5000000000000D-01  1.3230685836311D+00  3.8199574778611D-01
    57  5.6000000000000D-01  1.2909544280941D+00  4.4233644259376D-01
    58  5.7000000000000D-01  1.2572061180024D+00  5.0341032982934D-01
    59  5.8000000000000D-01  1.2219258608834D+00  5.6502666084650D-01
    60  5.9000000000000D-01  1.1852205075782D+00  6.2698595118770D-01
    61  6.0000000000000D-01  1.1472011741311D+00  6.8908069550347D-01
    62  6.1000000000000D-01  1.1079828394862D+00  7.5109618767879D-01
    63  6.2000000000000D-01  1.0676839209697D+00  8.1281144410963D-01
    64  6.3000000000000D-01  1.0264258296585D+00  8.7400022674508D-01
    65  6.4000000000000D-01  9.8433250785345D-01  9.3443216116584D-01
    66  6.5000000000000D-01  9.4152995096779D-01  9.9387394364810D-01
    67  6.6000000000000D-01  8.9814571622735D-01  1.0520906298530D+00
    68  6.7000000000000D-01  8.5430842064359D-01  1.1088469965288D+00
    69  6.8000000000000D-01  8.1014723077319D-01  1.1639089664209D+00
    70  6.9000000000000D-01  7.6579134681544D-01  1.2170450854736D+00
    71  7.0000000000000D-01  7.2136948362217D-01  1.2680280403913D+00
    72  7.1000000000000D-01  6.7700935120488D-01  1.3166362037319D+00
    73  7.2000000000000D-01  6.3283713732129D-01  1.3626551929306D+00
    74  7.3000000000000D-01  5.8897699470923D-01  1.4058794290178D+00
    75  7.4000000000000D-01  5.4555053550936D-01  1.4461136803179D+00
    76  7.5000000000000D-01  5.0267633538317D-01  1.4831745760880D+00
    77  7.6000000000000D-01  4.6046944978624D-01  1.5168920749025D+00
    78  7.7000000000000D-01  4.1904094480319D-01  1.5471108725996D+00
    79  7.8000000000000D-01  3.7849744488838D-01  1.5736917347919D+00
    80  7.9000000000000D-01  3.3894069978775D-01  1.5965127392937D+00
    81  8.0000000000000D-01  3.0046717284152D-01  1.6154704143445D+00
    82  8.1000000000000D-01  2.6316765278683D-01  1.6304807591865D+00
    83  8.2000000000000D-01  2.2712689109379D-01  1.6414801343910D+00
    84  8.3000000000000D-01  1.9242326677820D-01  1.6484260103085D+00
    85  8.4000000000000D-01  1.5912848054061D-01  1.6512975631232D+00
    86  8.5000000000000D-01  1.2730727998408D-01  1.6500961092161D+00
    87  8.6000000000000D-01  9.7017217563217D-02  1.6448453698635D+00
    88  8.7000000000000D-01  6.8308442814162D-02  1.6355915596979D+00
    89  8.8000000000000D-01  4.1223530310475D-02  1.6224032938210D+00
    90  8.9000000000000D-01  1.5797344682475D-02  1.6053713099622D+00
    91  9.0000000000000D-01 -7.9430560715130D-03  1.5846080035961D+00
    92  9.1000000000000D-01 -2.9978477864746D-02  1.5602467754542D+00
    93  9.2000000000000D-01 -5.0297607388068D-02  1.5324411923596D+00
    94  9.3000000000000D-01 -6.8896987672698D-02  1.5013639637651D+00
    95  9.4000000000000D-01 -8.5780951577175D-02  1.4672057377616D+00
    96  9.5000000000000D-01 -1.0096151254346D-01  1.4301737216188D+00
    97  9.6000000000000D-01 -1.1445821208706D-01  1.3904901331146D+00
    98  9.7000000000000D-01 -1.2629792360867D-01  1.3483904899940D+00
    99  9.8000000000000D-01 -1.3651461223660D-01  1.3041217458249D+00
   100  9.9000000000000D-01 -1.4514905053427D-01  1.2579402813162D+00
   101  1.0000000000000D+00 -1.5224849003217D-01  1.2101097607911D+00
   102  1.0100000000000D+00 -1.5786628866945D-01  1.1608988639754D+00
   103  1.0200000000000D+00 -1.6206149435976D-01  1.1105789035459D+00
   104  1.0300000000000D+00 -1.6489838501627D-01  1.0594213390035D+00
   105  1.0400000000000D+00 -1.6644596550355D-01  1.0076951973797D+00
   106  1.0500000000000D+00 -1.6677742210591D-01  9.5566441104215D-01
   107  1.0600000000000D+00 -1.6596953522453D-01  9.0358508247515D-01
   108  1.0700000000000D+00 -1.6410205113867D-01  8.5170268533296D-01
   109  1.0800000000000D+00 -1.6125701324659D-01  8.0024920456324D-01
   110  1.0900000000000D+00 -1.5751805462514D-01  7.4944023500309D-01
   111  1.1000000000000D+00 -1.5296966396879D-01  6.9947214117600D-01
   112  1.1100000000000D+00 -1.4769638395554D-01  6.5051889096148D-01
   113  1.1200000000000D+00 -1.4178198669167D-01  6.0272892310430D-01
   114  1.1300000000000D+00 -1.3530940156319D-01  5.5623050552886D-01
   115  1.1400000000000D+00 -1.2836097086562D-01  5.1113904627419D-01
   116  1.1500000000000D+00 -1.2101854696462D-01  4.6756157360454D-01
   117  1.1600000000000D+00 -1.1336309090655D-01  4.2559533150078D-01
   118  1.1700000000000D+00 -1.0547440641632D-01  3.8532811526515D-01
   119  1.1800000000000D+00 -9.7430844269153D-02  3.4683827018752D-01
   120  1.1900000000000D+00 -8.9309020307463D-02  3.1019488336357D-01
   121  1.2000000000000D+00 -8.1183538293499D-02  2.7545803633137D-01
   122  1.2100000000000D+00 -7.3126721391359D-02  2.4267914189974D-01
   123  1.2200000000000D+00 -6.5208352880078D-02  2.1190135021035D-01
   124  1.2300000000000D+00 -5.7495427020692D-02  1.8316001317819D-01
   125  1.2400000000000D+00 -5.0051910955654D-02  1.5648319582935D-01
   126  1.2500000000000D+00 -4.2938518392338D-02  1.3189222215212D-01
   127  1.2600000000000D+00 -3.6212495785559D-02  1.0940224332631D-01
   128  1.2700000000000D+00 -2.9927421698166D-02  8.9022815896187D-02
   129  1.2800000000000D+00 -2.4133019918466D-02  7.0758477520691D-02
   130  1.2900000000000D+00 -1.8874986862574D-02  5.4609308755272D-02
   131  1.3000000000000D+00 -1.4194833779843D-02  4.0571469146866D-02
   132  1.3100000000000D+00 -1.0129744171408D-02  2.8637696999174D-02
   133  1.3200000000000D+00 -6.7140787125136D-03  1.8802190701359D-02
   134  1.3300000000000D+00 -3.9715157633732D-03  1.1039987674268D-02
   135  1.3400000000000D+00 -1.9165170417268D-03  5.3111202174049D-03
   136  1.3500000000000D+00 -6.2436273518470D-04  1.7547284756114D-03
   137  1.3600000000000D+00 -4.8462628594553D-05  1.8380352256554D-04
   138  1.3700000000000D+00  5.9715819705339D-05 -1.3279859556912D-04
   139  1.3800000000000D+00 -2.9856428000445D-06  7.0767404908250D-06
   140  1.3900000000000D+00 -1.4323853263615D-05  3.4650414787484D-05
   141  1.4000000000000D+00  2.4404346440097D-06 -5.7430842957258D-06
   142  1.4100000000000D+00  1.4160875583903D-06 -3.3659076915837D-06
   143  1.4200000000000D+00 -5.3781059701346D-08  7.4189054187846D-09
   144  1.4300000000000D+00  0.0000000000000D+00  0.0000000000000D+00
   145  1.4400000000000D+00  0.0000000000000D+00  0.0000000000000D+00
   146  1.4500000000000D+00  0.0000000000000D+00  0.0000000000000D+00
   147  1.4600000000000D+00  0.0000000000000D+00  0.0000000000000D+00
   148  1.4700000000000D+00  0.0000000000000D+00  0.0000000000000D+00
   149  1.4800000000000D+00  0.0000000000000D+00  0.0000000000000D+00
   150  1.4900000000000D+00  0.0000000000000D+00  0.0000000000000D+00
   151  1.5000000000000D+00  0.0000000000000D+00  0.0000000000000D+00
   152  1.5100000000000D+00  0.0000000000000D+00  0.0000000000000D+00
   153  1.5200000000000D+00  0.0000000000000D+00  0.0000000000000D+00
   154  1.5300000000000D+00  0.0000000000000D+00  0.0000000000000D+00
   155  1.5400000000000D+00  0.0000000000000D+00  0.0000000000000D+00
   156  1.5500000000000D+00  0.0000000000000D+00  0.0000000000000D+00
   157  1.5600000000000D+00  0.0000000000000D+00  0.0000000000000D+00
   158  1.5700000000000D+00  0.0000000000000D+00  0.0000000000000D+00
   159  1.5800000000000D+00  0.0000000000000D+00  0.0000000000000D+00
   160  1.5900000000000D+00  0.0000000000000D+00  0.0000000000000D+00
   161  1.6000000000000D+00  0.0000000000000D+00  0.0000000000000D+00
   162  1.6100000000000D+00  0.0000000000000D+00  0.0000000000000D+00
   163  1.6200000000000D+00  0.0000000000000D+00  0.0000000000000D+00
   164  1.6300000000000D+00  0.0000000000000D+00  0.0000000000000D+00
   165  1.6400000000000D+00  0.0000000000000D+00  0.0000000000000D+00
   166  1.6500000000000D+00  0.0000000000000D+00  0.0000000000000D+00
   167  1.6600000000000D+00  0.0000000000000D+00  0.0000000000000D+00
   168  1.6700000000000D+00  0.0000000000000D+00  0.0000000000000D+00
   169  1.6800000000000D+00  0.0000000000000D+00  0.0000000000000D+00
   170  1.6900000000000D+00  0.0000000000000D+00  0.0000000000000D+00
   171  1.7000000000000D+00  0.0000000000000D+00  0.0000000000000D+00
   172  1.7100000000000D+00  0.0000000000000D+00  0.0000000000000D+00
   173  1.7200000000000D+00  0.0000000000000D+00  0.0000000000000D+00
   174  1.7300000000000D+00  0.0000000000000D+00  0.0000000000000D+00
   175  1.7400000000000D+00  0.0000000000000D+00  0.0000000000000D+00
   176  1.7500000000000D+00  0.0000000000000D+00  0.0000000000000D+00
   177  1.7600000000000D+00  0.0000000000000D+00  0.0000000000000D+00
   178  1.7700000000000D+00  0.0000000000000D+00  0.0000000000000D+00
   179  1.7800000000000D+00  0.0000000000000D+00  0.0000000000000D+00
   180  1.7900000000000D+00  0.0000000000000D+00  0.0000000000000D+00
   181  1.8000000000000D+00  0.0000000000000D+00  0.0000000000000D+00
   182  1.8100000000000D+00  0.0000000000000D+00  0.0000000000000D+00
   183  1.8200000000000D+00  0.0000000000000D+00  0.0000000000000D+00
   184  1.8300000000000D+00  0.0000000000000D+00  0.0000000000000D+00
   185  1.8400000000000D+00  0.0000000000000D+00  0.0000000000000D+00
   186  1.8500000000000D+00  0.0000000000000D+00  0.0000000000000D+00
   187  1.8600000000000D+00  0.0000000000000D+00  0.0000000000000D+00
   188  1.8700000000000D+00  0.0000000000000D+00  0.0000000000000D+00
   189  1.8800000000000D+00  0.0000000000000D+00  0.0000000000000D+00
   190  1.8900000000000D+00  0.0000000000000D+00  0.0000000000000D+00
   191  1.9000000000000D+00  0.0000000000000D+00  0.0000000000000D+00
   192  1.9100000000000D+00  0.0000000000000D+00  0.0000000000000D+00
   193  1.9200000000000D+00  0.0000000000000D+00  0.0000000000000D+00
   194  1.9300000000000D+00  0.0000000000000D+00  0.0000000000000D+00
   195  1.9400000000000D+00  0.0000000000000D+00  0.0000000000000D+00
   196  1.9500000000000D+00  0.0000000000000D+00  0.0000000000000D+00
   197  1.9600000000000D+00  0.0000000000000D+00  0.0000000000000D+00
   198  1.9700000000000D+00  0.0000000000000D+00  0.0000000000000D+00
   199  1.9800000000000D+00  0.0000000000000D+00  0.0000000000000D+00
   200  1.9900000000000D+00  0.0000000000000D+00  0.0000000000000D+00
   201  2.0000000000000D+00  0.0000000000000D+00  0.0000000000000D+00
   202  2.0100000000000D+00  0.0000000000000D+00  0.0000000000000D+00
   203  2.0200000000000D+00  0.0000000000000D+00  0.0000000000000D+00
   204  2.0300000000000D+00  0.0000000000000D+00  0.0000000000000D+00
   205  2.0400000000000D+00  0.0000000000000D+00  0.0000000000000D+00
   206  2.0500000000000D+00  0.0000000000000D+00  0.0000000000000D+00
   207  2.0600000000000D+00  0.0000000000000D+00  0.0000000000000D+00
   208  2.0700000000000D+00  0.0000000000000D+00  0.0000000000000D+00
   209  2.0800000000000D+00  0.0000000000000D+00  0.0000000000000D+00
   210  2.0900000000000D+00  0.0000000000000D+00  0.0000000000000D+00
   211  2.1000000000000D+00  0.0000000000000D+00  0.0000000000000D+00
   212  2.1100000000000D+00  0.0000000000000D+00  0.0000000000000D+00
   213  2.1200000000000D+00  0.0000000000000D+00  0.0000000000000D+00
   214  2.1300000000000D+00  0.0000000000000D+00  0.0000000000000D+00
   215  2.1400000000000D+00  0.0000000000000D+00  0.0000000000000D+00
   216  2.1500000000000D+00  0.0000000000000D+00  0.0000000000000D+00
   217  2.1600000000000D+00  0.0000000000000D+00  0.0000000000000D+00
   218  2.1700000000000D+00  0.0000000000000D+00  0.0000000000000D+00
   219  2.1800000000000D+00  0.0000000000000D+00  0.0000000000000D+00
   220  2.1900000000000D+00  0.0000000000000D+00  0.0000000000000D+00
   221  2.2000000000000D+00  0.0000000000000D+00  0.0000000000000D+00
   222  2.2100000000000D+00  0.0000000000000D+00  0.0000000000000D+00
   223  2.2200000000000D+00  0.0000000000000D+00  0.0000000000000D+00
   224  2.2300000000000D+00  0.0000000000000D+00  0.0000000000000D+00
   225  2.2400000000000D+00  0.0000000000000D+00  0.0000000000000D+00
   226  2.2500000000000D+00  0.0000000000000D+00  0.0000000000000D+00
   227  2.2600000000000D+00  0.0000000000000D+00  0.0000000000000D+00
   228  2.2700000000000D+00  0.0000000000000D+00  0.0000000000000D+00
   229  2.2800000000000D+00  0.0000000000000D+00  0.0000000000000D+00
   230  2.2900000000000D+00  0.0000000000000D+00  0.0000000000000D+00
   231  2.3000000000000D+00  0.0000000000000D+00  0.0000000000000D+00
   232  2.3100000000000D+00  0.0000000000000D+00  0.0000000000000D+00
   233  2.3200000000000D+00  0.0000000000000D+00  0.0000000000000D+00
   234  2.3300000000000D+00  0.0000000000000D+00  0.0000000000000D+00
   235  2.3400000000000D+00  0.0000000000000D+00  0.0000000000000D+00
   236  2.3500000000000D+00  0.0000000000000D+00  0.0000000000000D+00
   237  2.3600000000000D+00  0.0000000000000D+00  0.0000000000000D+00
   238  2.3700000000000D+00  0.0000000000000D+00  0.0000000000000D+00
   239  2.3800000000000D+00  0.0000000000000D+00  0.0000000000000D+00
   240  2.3900000000000D+00  0.0000000000000D+00  0.0000000000000D+00
   241  2.4000000000000D+00  0.0000000000000D+00  0.0000000000000D+00
   242  2.4100000000000D+00  0.0000000000000D+00  0.0000000000000D+00
   243  2.4200000000000D+00  0.0000000000000D+00  0.0000000000000D+00
   244  2.4300000000000D+00  0.0000000000000D+00  0.0000000000000D+00
   245  2.4400000000000D+00  0.0000000000000D+00  0.0000000000000D+00
   246  2.4500000000000D+00  0.0000000000000D+00  0.0000000000000D+00
   247  2.4600000000000D+00  0.0000000000000D+00  0.0000000000000D+00
   248  2.4700000000000D+00  0.0000000000000D+00  0.0000000000000D+00
   249  2.4800000000000D+00  0.0000000000000D+00  0.0000000000000D+00
   250  2.4900000000000D+00  0.0000000000000D+00  0.0000000000000D+00
   251  2.5000000000000D+00  0.0000000000000D+00  0.0000000000000D+00
   252  2.5100000000000D+00  0.0000000000000D+00  0.0000000000000D+00
   253  2.5200000000000D+00  0.0000000000000D+00  0.0000000000000D+00
   254  2.5300000000000D+00  0.0000000000000D+00  0.0000000000000D+00
   255  2.5400000000000D+00  0.0000000000000D+00  0.0000000000000D+00
   256  2.5500000000000D+00  0.0000000000000D+00  0.0000000000000D+00
   257  2.5600000000000D+00  0.0000000000000D+00  0.0000000000000D+00
   258  2.5700000000000D+00  0.0000000000000D+00  0.0000000000000D+00
   259  2.5800000000000D+00  0.0000000000000D+00  0.0000000000000D+00
   260  2.5900000000000D+00  0.0000000000000D+00  0.0000000000000D+00
   261  2.6000000000000D+00  0.0000000000000D+00  0.0000000000000D+00
   262  2.6100000000000D+00  0.0000000000000D+00  0.0000000000000D+00
   263  2.6200000000000D+00  0.0000000000000D+00  0.0000000000000D+00
   264  2.6300000000000D+00  0.0000000000000D+00  0.0000000000000D+00
   265  2.6400000000000D+00  0.0000000000000D+00  0.0000000000000D+00
   266  2.6500000000000D+00  0.0000000000000D+00  0.0000000000000D+00
   267  2.6600000000000D+00  0.0000000000000D+00  0.0000000000000D+00
   268  2.6700000000000D+00  0.0000000000000D+00  0.0000000000000D+00
   269  2.6800000000000D+00  0.0000000000000D+00  0.0000000000000D+00
   270  2.6900000000000D+00  0.0000000000000D+00  0.0000000000000D+00
   271  2.7000000000000D+00  0.0000000000000D+00  0.0000000000000D+00
   272  2.7100000000000D+00  0.0000000000000D+00  0.0000000000000D+00
   273  2.7200000000000D+00  0.0000000000000D+00  0.0000000000000D+00
   274  2.7300000000000D+00  0.0000000000000D+00  0.0000000000000D+00
   275  2.7400000000000D+00  0.0000000000000D+00  0.0000000000000D+00
   276  2.7500000000000D+00  0.0000000000000D+00  0.0000000000000D+00
   277  2.7600000000000D+00  0.0000000000000D+00  0.0000000000000D+00
   278  2.7700000000000D+00  0.0000000000000D+00  0.0000000000000D+00
   279  2.7800000000000D+00  0.0000000000000D+00  0.0000000000000D+00
   280  2.7900000000000D+00  0.0000000000000D+00  0.0000000000000D+00
   281  2.8000000000000D+00  0.0000000000000D+00  0.0000000000000D+00
   282  2.8100000000000D+00  0.0000000000000D+00  0.0000000000000D+00
   283  2.8200000000000D+00  0.0000000000000D+00  0.0000000000000D+00
   284  2.8300000000000D+00  0.0000000000000D+00  0.0000000000000D+00
   285  2.8400000000000D+00  0.0000000000000D+00  0.0000000000000D+00
   286  2.8500000000000D+00  0.0000000000000D+00  0.0000000000000D+00
   287  2.8600000000000D+00  0.0000000000000D+00  0.0000000000000D+00
   288  2.8700000000000D+00  0.0000000000000D+00  0.0000000000000D+00
   289  2.8800000000000D+00  0.0000000000000D+00  0.0000000000000D+00
   290  2.8900000000000D+00  0.0000000000000D+00  0.0000000000000D+00
   291  2.9000000000000D+00  0.0000000000000D+00  0.0000000000000D+00
   292  2.9100000000000D+00  0.0000000000000D+00  0.0000000000000D+00
   293  2.9200000000000D+00  0.0000000000000D+00  0.0000000000000D+00
   294  2.9300000000000D+00  0.0000000000000D+00  0.0000000000000D+00
   295  2.9400000000000D+00  0.0000000000000D+00  0.0000000000000D+00
   296  2.9500000000000D+00  0.0000000000000D+00  0.0000000000000D+00
   297  2.9600000000000D+00  0.0000000000000D+00  0.0000000000000D+00
   298  2.9700000000000D+00  0.0000000000000D+00  0.0000000000000D+00
   299  2.9800000000000D+00  0.0000000000000D+00  0.0000000000000D+00
   300  2.9900000000000D+00  0.0000000000000D+00  0.0000000000000D+00
   301  3.0000000000000D+00  0.0000000000000D+00  0.0000000000000D+00
   302  3.0100000000000D+00  0.0000000000000D+00  0.0000000000000D+00
   303  3.0200000000000D+00  0.0000000000000D+00  0.0000000000000D+00
   304  3.0300000000000D+00  0.0000000000000D+00  0.0000000000000D+00
   305  3.0400000000000D+00  0.0000000000000D+00  0.0000000000000D+00
   306  3.0500000000000D+00  0.0000000000000D+00  0.0000000000000D+00
   307  3.0600000000000D+00  0.0000000000000D+00  0.0000000000000D+00
   308  3.0700000000000D+00  0.0000000000000D+00  0.0000000000000D+00
   309  3.0800000000000D+00  0.0000000000000D+00  0.0000000000000D+00
   310  3.0900000000000D+00  0.0000000000000D+00  0.0000000000000D+00
   311  3.1000000000000D+00  0.0000000000000D+00  0.0000000000000D+00
   312  3.1100000000000D+00  0.0000000000000D+00  0.0000000000000D+00
   313  3.1200000000000D+00  0.0000000000000D+00  0.0000000000000D+00
   314  3.1300000000000D+00  0.0000000000000D+00  0.0000000000000D+00
   315  3.1400000000000D+00  0.0000000000000D+00  0.0000000000000D+00
   316  3.1500000000000D+00  0.0000000000000D+00  0.0000000000000D+00
   317  3.1600000000000D+00  0.0000000000000D+00  0.0000000000000D+00
   318  3.1700000000000D+00  0.0000000000000D+00  0.0000000000000D+00
   319  3.1800000000000D+00  0.0000000000000D+00  0.0000000000000D+00
   320  3.1900000000000D+00  0.0000000000000D+00  0.0000000000000D+00
   321  3.2000000000000D+00  0.0000000000000D+00  0.0000000000000D+00
   322  3.2100000000000D+00  0.0000000000000D+00  0.0000000000000D+00
   323  3.2200000000000D+00  0.0000000000000D+00  0.0000000000000D+00
   324  3.2300000000000D+00  0.0000000000000D+00  0.0000000000000D+00
   325  3.2400000000000D+00  0.0000000000000D+00  0.0000000000000D+00
   326  3.2500000000000D+00  0.0000000000000D+00  0.0000000000000D+00
   327  3.2600000000000D+00  0.0000000000000D+00  0.0000000000000D+00
   328  3.2700000000000D+00  0.0000000000000D+00  0.0000000000000D+00
   329  3.2800000000000D+00  0.0000000000000D+00  0.0000000000000D+00
   330  3.2900000000000D+00  0.0000000000000D+00  0.0000000000000D+00
   331  3.3000000000000D+00  0.0000000000000D+00  0.0000000000000D+00
   332  3.3100000000000D+00  0.0000000000000D+00  0.0000000000000D+00
   333  3.3200000000000D+00  0.0000000000000D+00  0.0000000000000D+00
   334  3.3300000000000D+00  0.0000000000000D+00  0.0000000000000D+00
   335  3.3400000000000D+00  0.0000000000000D+00  0.0000000000000D+00
   336  3.3500000000000D+00  0.0000000000000D+00  0.0000000000000D+00
   337  3.3600000000000D+00  0.0000000000000D+00  0.0000000000000D+00
   338  3.3700000000000D+00  0.0000000000000D+00  0.0000000000000D+00
   339  3.3800000000000D+00  0.0000000000000D+00  0.0000000000000D+00
   340  3.3900000000000D+00  0.0000000000000D+00  0.0000000000000D+00
   341  3.4000000000000D+00  0.0000000000000D+00  0.0000000000000D+00
   342  3.4100000000000D+00  0.0000000000000D+00  0.0000000000000D+00
   343  3.4200000000000D+00  0.0000000000000D+00  0.0000000000000D+00
   344  3.4300000000000D+00  0.0000000000000D+00  0.0000000000000D+00
   345  3.4400000000000D+00  0.0000000000000D+00  0.0000000000000D+00
   346  3.4500000000000D+00  0.0000000000000D+00  0.0000000000000D+00
   347  3.4600000000000D+00  0.0000000000000D+00  0.0000000000000D+00
   348  3.4700000000000D+00  0.0000000000000D+00  0.0000000000000D+00
   349  3.4800000000000D+00  0.0000000000000D+00  0.0000000000000D+00
   350  3.4900000000000D+00  0.0000000000000D+00  0.0000000000000D+00
   351  3.5000000000000D+00  0.0000000000000D+00  0.0000000000000D+00
   352  3.5100000000000D+00  0.0000000000000D+00  0.0000000000000D+00
   353  3.5200000000000D+00  0.0000000000000D+00  0.0000000000000D+00
   354  3.5300000000000D+00  0.0000000000000D+00  0.0000000000000D+00
   355  3.5400000000000D+00  0.0000000000000D+00  0.0000000000000D+00
   356  3.5500000000000D+00  0.0000000000000D+00  0.0000000000000D+00
   357  3.5600000000000D+00  0.0000000000000D+00  0.0000000000000D+00
   358  3.5700000000000D+00  0.0000000000000D+00  0.0000000000000D+00
   359  3.5800000000000D+00  0.0000000000000D+00  0.0000000000000D+00
   360  3.5900000000000D+00  0.0000000000000D+00  0.0000000000000D+00
   361  3.6000000000000D+00  0.0000000000000D+00  0.0000000000000D+00
   362  3.6100000000000D+00  0.0000000000000D+00  0.0000000000000D+00
   363  3.6200000000000D+00  0.0000000000000D+00  0.0000000000000D+00
   364  3.6300000000000D+00  0.0000000000000D+00  0.0000000000000D+00
   365  3.6400000000000D+00  0.0000000000000D+00  0.0000000000000D+00
   366  3.6500000000000D+00  0.0000000000000D+00  0.0000000000000D+00
   367  3.6600000000000D+00  0.0000000000000D+00  0.0000000000000D+00
   368  3.6700000000000D+00  0.0000000000000D+00  0.0000000000000D+00
   369  3.6800000000000D+00  0.0000000000000D+00  0.0000000000000D+00
   370  3.6900000000000D+00  0.0000000000000D+00  0.0000000000000D+00
   371  3.7000000000000D+00  0.0000000000000D+00  0.0000000000000D+00
   372  3.7100000000000D+00  0.0000000000000D+00  0.0000000000000D+00
   373  3.7200000000000D+00  0.0000000000000D+00  0.0000000000000D+00
   374  3.7300000000000D+00  0.0000000000000D+00  0.0000000000000D+00
   375  3.7400000000000D+00  0.0000000000000D+00  0.0000000000000D+00
   376  3.7500000000000D+00  0.0000000000000D+00  0.0000000000000D+00
   377  3.7600000000000D+00  0.0000000000000D+00  0.0000000000000D+00
   378  3.7700000000000D+00  0.0000000000000D+00  0.0000000000000D+00
   379  3.7800000000000D+00  0.0000000000000D+00  0.0000000000000D+00
   380  3.7900000000000D+00  0.0000000000000D+00  0.0000000000000D+00
   381  3.8000000000000D+00  0.0000000000000D+00  0.0000000000000D+00
   382  3.8100000000000D+00  0.0000000000000D+00  0.0000000000000D+00
   383  3.8200000000000D+00  0.0000000000000D+00  0.0000000000000D+00
   384  3.8300000000000D+00  0.0000000000000D+00  0.0000000000000D+00
   385  3.8400000000000D+00  0.0000000000000D+00  0.0000000000000D+00
   386  3.8500000000000D+00  0.0000000000000D+00  0.0000000000000D+00
   387  3.8600000000000D+00  0.0000000000000D+00  0.0000000000000D+00
   388  3.8700000000000D+00  0.0000000000000D+00  0.0000000000000D+00
   389  3.8800000000000D+00  0.0000000000000D+00  0.0000000000000D+00
   390  3.8900000000000D+00  0.0000000000000D+00  0.0000000000000D+00
   391  3.9000000000000D+00  0.0000000000000D+00  0.0000000000000D+00
   392  3.9100000000000D+00  0.0000000000000D+00  0.0000000000000D+00
   393  3.9200000000000D+00  0.0000000000000D+00  0.0000000000000D+00
   394  3.9300000000000D+00  0.0000000000000D+00  0.0000000000000D+00
   395  3.9400000000000D+00  0.0000000000000D+00  0.0000000000000D+00
   396  3.9500000000000D+00  0.0000000000000D+00  0.0000000000000D+00
   397  3.9600000000000D+00  0.0000000000000D+00  0.0000000000000D+00
   398  3.9700000000000D+00  0.0000000000000D+00  0.0000000000000D+00
   399  3.9800000000000D+00  0.0000000000000D+00  0.0000000000000D+00
   400  3.9900000000000D+00  0.0000000000000D+00  0.0000000000000D+00
   1                         4.3790006390733D+00  5.5364704225847D-01
     1  0.0000000000000D+00  4.2346022521844D-10 -1.7912118455143D-09
     2  1.0000000000000D-02  1.6034566472239D-03 -1.2022485775802D-03
     3  2.0000000000000D-02  6.4072240817495D-03 -4.7992335720211D-03
     4  3.0000000000000D-02  1.4391526742841D-02 -1.0761757337196D-02
     5  4.0000000000000D-02  2.5523511664580D-02 -1.9041438011712D-02
     6  5.0000000000000D-02  3.9757407113737D-02 -2.9571127309039D-02
     7  6.0000000000000D-02  5.7034743062637D-02 -4.2265488411478D-02
     8  7.0000000000000D-02  7.7284631899741D-02 -5.7021727079427D-02
     9  8.0000000000000D-02  1.0042410735727D-01 -7.3720467296187D-02
    10  9.0000000000000D-02  1.2635851923487D-01 -9.2226761102846D-02
    11  1.0000000000000D-01  1.5498198112683D-01 -1.1239122076580D-01
    12  1.1000000000000D-01  1.8617786802116D-01 -1.3405126008172D-01
    13  1.2000000000000D-01  2.1981936033555D-01 -1.5703243047912D-01
    14  1.3000000000000D-01  2.5577003069127D-01 -1.8114983664075D-01
    15  1.4000000000000D-01  2.9388446950399D-01 -2.0620961565787D-01
    16  1.5000000000000D-01  3.3400894529141D-01 -2.3201046324692D-01
    17  1.6000000000000D-01  3.7598209546412D-01 -2.5834519031459D-01
    18  1.7000000000000D-01  4.1963564327740D-01 -2.8500229315465D-01
    19  1.8000000000000D-01  4.6479513657891D-01 -3.1176752079376D-01
    20  1.9000000000000D-01  5.1128070398830D-01 -3.3842542346967D-01
    21  2.0000000000000D-01  5.5890782419000D-01 -3.6476086691617D-01