Rb    ONCVPSP-3.3.0  r_core=   1.71227   1.75361   1.90633
     37.0000      9.0000      220117    zatom,zion,pspd
     8      11   2     4   600     0    pspcod,pspxc,lmax,lloc,mmax,r2well
  5.99000000  0.00000000  0.00000000    rchrg fchrg qchrg
     2     2     2     0     0    nproj
     1     1           extension_switch
   0                         8.2462009077206D+00 -4.6908140517905D-01
     1  0.0000000000000D+00  3.9100217508192D-10  1.6847663264485D-09
     2  1.0000000000000D-02  5.7280105875707D-02 -6.8523587591053D-03
     3  2.0000000000000D-02  1.1449972305011D-01 -1.3585569612713D-02
     4  3.0000000000000D-02  1.7159804698680D-01 -2.0082367413166D-02
     5  4.0000000000000D-02  2.2851364826654D-01 -2.6229223208690D-02
     6  5.0000000000000D-02  2.8518417701306D-01 -3.1918139478767D-02
     7  6.0000000000000D-02  3.4154608727715D-01 -3.7048359151477D-02
     8  7.0000000000000D-02  3.9753438756560D-01 -4.1527961672917D-02
     9  8.0000000000000D-02  4.5308242331055D-01 -4.5275321083601D-02
    10  9.0000000000000D-02  5.0812169659671D-01 -4.8220403116202D-02
    11  1.0000000000000D-01  5.6258172790525D-01 -5.0305880733456D-02
    12  1.1000000000000D-01  6.1638996400253D-01 -5.1488050239116D-02
    13  1.2000000000000D-01  6.6947173540779D-01 -5.1737533079380D-02
    14  1.3000000000000D-01  7.2175026612648D-01 -5.1039751663312D-02
    15  1.4000000000000D-01  7.7314673754587D-01 -4.9395170922075D-02
    16  1.5000000000000D-01  8.2358040756849D-01 -4.6819300848170D-02
    17  1.6000000000000D-01  8.7296878521812D-01 -4.3342458856336D-02
    18  1.7000000000000D-01  9.2122786010500D-01 -3.9009294434431D-02
    19  1.8000000000000D-01  9.6827238529366D-01 -3.3878082151925D-02
    20  1.9000000000000D-01  1.0140162112906D+00 -2.8019792613580D-02
    21  2.0000000000000D-01  1.0583726680716D+00 -2.1516954333302D-02
    22  2.1000000000000D-01  1.1012549913112D+00 -1.4462322709604D-02
    23  2.2000000000000D-01  1.1425767882729D+00 -6.9573752603593D-03
    24  2.3000000000000D-01  1.1822525381723D+00  8.8934502198778D-04
    25  2.4000000000000D-01  1.2201981212547D+00  8.9640139448950D-03
    26  2.5000000000000D-01  1.2563313703357D+00  1.7149411730580D-02
    27  2.6000000000000D-01  1.2905726381440D+00  2.5326882024101D-02
    28  2.7000000000000D-01  1.3228453734947D+00  3.3378335095677D-02
    29  2.8000000000000D-01  1.3530766991044D+00  4.1188265212528D-02
    30  2.9000000000000D-01  1.3811979837417D+00  4.8645751769949D-02
    31  3.0000000000000D-01  1.4071454013969D+00  5.5646413831981D-02
    32  3.1000000000000D-01  1.4308604702429D+00  6.2094288240633D-02
    33  3.2000000000000D-01  1.4522905643523D+00  6.7903602403208D-02
    34  3.3000000000000D-01  1.4713893914274D+00  7.3000414246722D-02
    35  3.4000000000000D-01  1.4881174301886D+00  7.7324093619886D-02
    36  3.5000000000000D-01  1.5024423215417D+00  8.0828621600146D-02
    37  3.6000000000000D-01  1.5143392082107D+00  8.3483686697304D-02
    38  3.7000000000000D-01  1.5237910181557D+00  8.5275559799294D-02
    39  3.8000000000000D-01  1.5307886878027D+00  8.6207732840294D-02
    40  3.9000000000000D-01  1.5353313218745D+00  8.6301309541799D-02
    41  4.0000000000000D-01  1.5374262874156D+00  8.5595140134539D-02
    42  4.1000000000000D-01  1.5370892404516D+00  8.4145695663318D-02
    43  4.2000000000000D-01  1.5343440845865D+00  8.2026681253245D-02
    44  4.3000000000000D-01  1.5292228617168D+00  7.9328391521003D-02
    45  4.4000000000000D-01  1.5217655759179D+00  7.6156815091827D-02
    46  4.5000000000000D-01  1.5120199524157D+00  7.2632498877859D-02
    47  4.6000000000000D-01  1.5000411343910D+00  6.8889186331015D-02
    48  4.7000000000000D-01  1.4858913211571D+00  6.5072247251612D-02
    49  4.8000000000000D-01  1.4696393519959D+00  6.1336919861732D-02
    50  4.9000000000000D-01  1.4513602406219D+00  5.7846388694717D-02
    51  5.0000000000000D-01  1.4311346658542D+00  5.4769724362998D-02
    52  5.1000000000000D-01  1.4090484246101D+00  5.2279713411983D-02
    53  5.2000000000000D-01  1.3851918537823D+00  5.0550608209758D-02
    54  5.3000000000000D-01  1.3596592279094D+00  4.9755828138239D-02
    55  5.4000000000000D-01  1.3325481398054D+00  5.0065644216258D-02
    56  5.5000000000000D-01  1.3039588714645D+00  5.1644879685928D-02
    57  5.6000000000000D-01  1.2739937626021D+00  5.4650659021984D-02
    58  5.7000000000000D-01  1.2427565841350D+00  5.9230237277932D-02
    59  5.8000000000000D-01  1.2103519237390D+00  6.5518940669946D-02
    60  5.9000000000000D-01  1.1768845903562D+00  7.3638247828815D-02
    61  6.0000000000000D-01  1.1424590441625D+00  8.3694039246583D-02
    62  6.1000000000000D-01  1.1071788580461D+00  9.5775040128581D-02
    63  6.2000000000000D-01  1.0711462161080D+00  1.0995147916428D-01
    64  6.3000000000000D-01  1.0344614540756D+00  1.2627398270561D-01
    65  6.4000000000000D-01  9.9722264582899D-01  1.4477272049535D-01
    66  6.5000000000000D-01  9.5952523949710D-01  1.6545681552054D-01
    67  6.6000000000000D-01  9.2146174578506D-01  1.8831402678072D-01
    68  6.7000000000000D-01  8.8312148036495D-01  2.1331070983401D-01
    69  6.8000000000000D-01  8.4459036131317D-01  2.4039205598038D-01
    70  6.9000000000000D-01  8.0595076171748D-01  2.6948260691012D-01
    71  7.0000000000000D-01  7.6728141671807D-01  3.0048703762877D-01
    72  7.1000000000000D-01  7.2865738340932D-01  3.3329119657096D-01
    73  7.2000000000000D-01  6.9015005121718D-01  3.6776338804534D-01
    74  7.3000000000000D-01  6.5182719960217D-01  4.0375587861467D-01
    75  7.4000000000000D-01  6.1375309922025D-01  4.4110660570239D-01
    76  7.5000000000000D-01  5.7598865202861D-01  4.7964106375237D-01
    77  7.6000000000000D-01  5.3859156524961D-01  5.1917434064014D-01
    78  7.7000000000000D-01  5.0161655361843D-01  5.5951327481013D-01
    79  7.8000000000000D-01  4.6511556394453D-01  6.0045870182448D-01
    80  7.9000000000000D-01  4.2913801572120D-01  6.4180775768163D-01
    81  8.0000000000000D-01  3.9373105132557D-01  6.8335620542305D-01
    82  8.1000000000000D-01  3.5893978926696D-01  7.2490075120366D-01
    83  8.2000000000000D-01  3.2480757396721D-01  7.6624131617250D-01
    84  8.3000000000000D-01  2.9137621569155D-01  8.0718323118596D-01
    85  8.4000000000000D-01  2.5868621449160D-01  8.4753932255454D-01
    86  8.5000000000000D-01  2.2677696237025D-01  8.8713185868942D-01
    87  8.6000000000000D-01  1.9568691832638D-01  9.2579432964414D-01
    88  8.7000000000000D-01  1.6545375147879D-01  9.6337303411002D-01
    89  8.8000000000000D-01  1.3611444809632D-01  9.9972845138596D-01
    90  8.9000000000000D-01  1.0770537906439D-01  1.0347363791601D+00
    91  9.0000000000000D-01  8.0262325087237D-02  1.0682888215653D+00
    92  9.1000000000000D-01  5.3820457748235D-02  1.1002946158494D+00
    93  9.2000000000000D-01  2.8414275413396D-02  1.1306797900692D+00
    94  9.3000000000000D-01  4.0774938606176D-03  1.1593876484574D+00
    95  9.4000000000000D-01 -1.9157107591231D-02  1.1863785853265D+00
    96  9.5000000000000D-01 -4.1257882758611D-02  1.2116296327435D+00
    97  9.6000000000000D-01 -6.2194555502199D-02  1.2351337513849D+00
    98  9.7000000000000D-01 -8.1938493433360D-02  1.2568988781063D+00
    99  9.8000000000000D-01 -1.0046301416865D-01  1.2769467476754D+00
   100  9.9000000000000D-01 -1.1774371912599D-01  1.2953115097872D+00
   101  1.0000000000000D+00 -1.3375884917079D-01  1.3120381658339D+00
   102  1.0100000000000D+00 -1.4848965581237D-01  1.3271808529256D+00
   103  1.0200000000000D+00 -1.6192078115317D-01  1.3408010051853D+00
   104  1.0300000000000D+00 -1.7404063937501D-01  1.3529654245307D+00
   105  1.0400000000000D+00 -1.8484179225476D-01  1.3637442947869D+00
   106  1.0500000000000D+00 -1.9432131103011D-01  1.3732091740663D+00
   107  1.0600000000000D+00 -2.0248111687455D-01  1.3814310009622D+00
   108  1.0700000000000D+00 -2.0932829233947D-01  1.3884781500258D+00
   109  1.0800000000000D+00 -2.1487535626890D-01  1.3944145716340D+00
   110  1.0900000000000D+00 -2.1914049507418D-01  1.3992980500657D+00
   111  1.1000000000000D+00 -2.2214774367077D-01  1.4031786120656D+00
   112  1.1100000000000D+00 -2.2392710998319D-01  1.4060971158607D+00
   113  1.1200000000000D+00 -2.2451463758773D-01  1.4080840479874D+00
   114  1.1300000000000D+00 -2.2395240180316D-01  1.4091585523277D+00
   115  1.1400000000000D+00 -2.2228843552968D-01  1.4093277117447D+00
   116  1.1500000000000D+00 -2.1957658205718D-01  1.4085860989368D+00
   117  1.1600000000000D+00 -2.1587627309570D-01  1.4069156088879D+00
   118  1.1700000000000D+00 -2.1125223129399D-01  1.4042855811155D+00
   119  1.1800000000000D+00 -2.0577409785375D-01  1.4006532143416D+00
   120  1.1900000000000D+00 -1.9951598697997D-01  1.3959642714958D+00
   121  1.2000000000000D+00 -1.9255596979013D-01  1.3901540692847D+00
   122  1.2100000000000D+00 -1.8497549186414D-01  1.3831487400463D+00
   123  1.2200000000000D+00 -1.7685872967447D-01  1.3748667491810D+00
   124  1.2300000000000D+00 -1.6829189212850D-01  1.3652206472917D+00
   125  1.2400000000000D+00 -1.5936247444499D-01  1.3541190320234D+00
   126  1.2500000000000D+00 -1.5015847297838D-01  1.3414686887474D+00
   127  1.2600000000000D+00 -1.4076757015663D-01  1.3271768769237D+00
   128  1.2700000000000D+00 -1.3127629935091D-01  1.3111537262325D+00
   129  1.2800000000000D+00 -1.2176920077658D-01  1.2933147011882D+00
   130  1.2900000000000D+00 -1.1232797951220D-01  1.2735830929796D+00
   131  1.3000000000000D+00 -1.0303067730155D-01  1.2518924948690D+00
   132  1.3100000000000D+00 -9.3950870346507D-02  1.2281892151558D+00
   133  1.3200000000000D+00 -8.5156904898917D-02  1.2024345833459D+00
   134  1.3300000000000D+00 -7.6711183046711D-02  1.1746071027349D+00
   135  1.3400000000000D+00 -6.8669510261474D-02  1.1447044059067D+00
   136  1.3500000000000D+00 -6.1080516193011D-02  1.1127449699808D+00
   137  1.3600000000000D+00 -5.3985160147849D-02  1.0787695486265D+00
   138  1.3700000000000D+00 -4.7416330328488D-02  1.0428422872821D+00
   139  1.3800000000000D+00 -4.1398547502605D-02  1.0050514816664D+00
   140  1.3900000000000D+00 -3.5947780600861D-02  9.6550995234238D-01
   141  1.4000000000000D+00 -3.1071380574841D-02  9.2435501257539D-01
   142  1.4100000000000D+00 -2.6768140544124D-02  8.8174800021372D-01
   143  1.4200000000000D+00 -2.3028483001339D-02  8.3787337270580D-01
   144  1.4300000000000D+00 -1.9834779642025D-02  7.9293734558090D-01
   145  1.4400000000000D+00 -1.7161803060278D-02  7.4716607955944D-01
   146  1.4500000000000D+00 -1.4977307646055D-02  7.0080342825278D-01
   147  1.4600000000000D+00 -1.3242740870058D-02  6.5410824435337D-01
   148  1.4700000000000D+00 -1.1914072481572D-02  6.0735129340234D-01
   149  1.4800000000000D+00 -1.0942741751348D-02  5.6081177712526D-01
   150  1.4900000000000D+00 -1.0276705886672D-02  5.1477353181341D-01
   151  1.5000000000000D+00 -9.8615806790174D-03  4.6952093714071D-01
   152  1.5100000000000D+00 -9.6418588851812D-03  4.2533459242359D-01
   153  1.5200000000000D+00 -9.5621831168969D-03  3.8248684678061D-01
   154  1.5300000000000D+00 -9.5686632459077D-03  3.4123722485510D-01
   155  1.5400000000000D+00 -9.6102000831301D-03  3.0182788620373D-01
   156  1.5500000000000D+00 -9.6398074174216D-03  2.6447915388744D-01
   157  1.5600000000000D+00 -9.6158847823548D-03  2.2938528120703D-01
   158  1.5700000000000D+00 -9.5034256404946D-03  1.9671051775995D-01
   159  1.5800000000000D+00 -9.2751129222812D-03  1.6658564412729D-01
   160  1.5900000000000D+00 -8.9122726237197D-03  1.3910508217171D-01
   161  1.6000000000000D+00 -8.4056398651195D-03  1.1432474192698D-01
   162  1.6100000000000D+00 -7.7558919765402D-03  9.2260761998663D-02
   163  1.6200000000000D+00 -6.9739064822026D-03  7.2889294282042D-02
   164  1.6300000000000D+00 -6.0806806885148D-03  5.6147542110197D-02
   165  1.6400000000000D+00 -5.1068749139196D-03  4.1936191741276D-02
   166  1.6500000000000D+00 -4.0918964706806D-03  3.0123500637759D-02
   167  1.6600000000000D+00 -3.0835409683429D-03  2.0556968692047D-02
   168  1.6700000000000D+00 -2.1311404879009D-03  1.3044555316480D-02
   169  1.6800000000000D+00 -1.2848070767829D-03  7.3781029607784D-03
   170  1.6900000000000D+00 -6.1578485605699D-04  3.4639796601485D-03
   171  1.7000000000000D+00 -1.8139870837354D-04  1.1916810385289D-03
   172  1.7100000000000D+00  2.6824481747896D-05  1.7328242568855D-04
   173  1.7200000000000D+00  6.1057149336017D-05 -9.1563633326365D-05
   174  1.7300000000000D+00  1.4689461371229D-05 -3.0640945813590D-05
   175  1.7400000000000D+00 -1.3646033732488D-05  3.3165740571455D-05
   176  1.7500000000000D+00 -6.4074524878527D-06  1.6365787911243D-05
   177  1.7600000000000D+00  2.3740485315860D-06 -5.5211625372968D-06
   178  1.7700000000000D+00  1.6283048341110D-06 -3.9384228084487D-06
   179  1.7800000000000D+00 -1.0368364206640D-07 -1.4319011852266D-07
   180  1.7900000000000D+00 -9.9325355903678D-08 -1.3717119885743D-07
   181  1.8000000000000D+00  0.0000000000000D+00  0.0000000000000D+00
   182  1.8100000000000D+00  0.0000000000000D+00  0.0000000000000D+00
   183  1.8200000000000D+00  0.0000000000000D+00  0.0000000000000D+00
   184  1.8300000000000D+00  0.0000000000000D+00  0.0000000000000D+00
   185  1.8400000000000D+00  0.0000000000000D+00  0.0000000000000D+00
   186  1.8500000000000D+00  0.0000000000000D+00  0.0000000000000D+00
   187  1.8600000000000D+00  0.0000000000000D+00  0.0000000000000D+00
   188  1.8700000000000D+00  0.0000000000000D+00  0.0000000000000D+00
   189  1.8800000000000D+00  0.0000000000000D+00  0.0000000000000D+00
   190  1.8900000000000D+00  0.0000000000000D+00  0.0000000000000D+00
   191  1.9000000000000D+00  0.0000000000000D+00  0.0000000000000D+00
   192  1.9100000000000D+00  0.0000000000000D+00  0.0000000000000D+00
   193  1.9200000000000D+00  0.0000000000000D+00  0.0000000000000D+00
   194  1.9300000000000D+00  0.0000000000000D+00  0.0000000000000D+00
   195  1.9400000000000D+00  0.0000000000000D+00  0.0000000000000D+00
   196  1.9500000000000D+00  0.0000000000000D+00  0.0000000000000D+00
   197  1.9600000000000D+00  0.0000000000000D+00  0.0000000000000D+00
   198  1.9700000000000D+00  0.0000000000000D+00  0.0000000000000D+00
   199  1.9800000000000D+00  0.0000000000000D+00  0.0000000000000D+00
   200  1.9900000000000D+00  0.0000000000000D+00  0.0000000000000D+00
   201  2.0000000000000D+00  0.0000000000000D+00  0.0000000000000D+00
   202  2.0100000000000D+00  0.0000000000000D+00  0.0000000000000D+00
   203  2.0200000000000D+00  0.0000000000000D+00  0.0000000000000D+00
   204  2.0300000000000D+00  0.0000000000000D+00  0.0000000000000D+00
   205  2.0400000000000D+00  0.0000000000000D+00  0.0000000000000D+00
   206  2.0500000000000D+00  0.0000000000000D+00  0.0000000000000D+00
   207  2.0600000000000D+00  0.0000000000000D+00  0.0000000000000D+00
   208  2.0700000000000D+00  0.0000000000000D+00  0.0000000000000D+00
   209  2.0800000000000D+00  0.0000000000000D+00  0.0000000000000D+00
   210  2.0900000000000D+00  0.0000000000000D+00  0.0000000000000D+00
   211  2.1000000000000D+00  0.0000000000000D+00  0.0000000000000D+00
   212  2.1100000000000D+00  0.0000000000000D+00  0.0000000000000D+00
   213  2.1200000000000D+00  0.0000000000000D+00  0.0000000000000D+00
   214  2.1300000000000D+00  0.0000000000000D+00  0.0000000000000D+00
   215  2.1400000000000D+00  0.0000000000000D+00  0.0000000000000D+00
   216  2.1500000000000D+00  0.0000000000000D+00  0.0000000000000D+00
   217  2.1600000000000D+00  0.0000000000000D+00  0.0000000000000D+00
   218  2.1700000000000D+00  0.0000000000000D+00  0.0000000000000D+00
   219  2.1800000000000D+00  0.0000000000000D+00  0.0000000000000D+00
   220  2.1900000000000D+00  0.0000000000000D+00  0.0000000000000D+00
   221  2.2000000000000D+00  0.0000000000000D+00  0.0000000000000D+00
   222  2.2100000000000D+00  0.0000000000000D+00  0.0000000000000D+00
   223  2.2200000000000D+00  0.0000000000000D+00  0.0000000000000D+00
   224  2.2300000000000D+00  0.0000000000000D+00  0.0000000000000D+00
   225  2.2400000000000D+00  0.0000000000000D+00  0.0000000000000D+00
   226  2.2500000000000D+00  0.0000000000000D+00  0.0000000000000D+00
   227  2.2600000000000D+00  0.0000000000000D+00  0.0000000000000D+00
   228  2.2700000000000D+00  0.0000000000000D+00  0.0000000000000D+00
   229  2.2800000000000D+00  0.0000000000000D+00  0.0000000000000D+00
   230  2.2900000000000D+00  0.0000000000000D+00  0.0000000000000D+00
   231  2.3000000000000D+00  0.0000000000000D+00  0.0000000000000D+00
   232  2.3100000000000D+00  0.0000000000000D+00  0.0000000000000D+00
   233  2.3200000000000D+00  0.0000000000000D+00  0.0000000000000D+00
   234  2.3300000000000D+00  0.0000000000000D+00  0.0000000000000D+00
   235  2.3400000000000D+00  0.0000000000000D+00  0.0000000000000D+00
   236  2.3500000000000D+00  0.0000000000000D+00  0.0000000000000D+00
   237  2.3600000000000D+00  0.0000000000000D+00  0.0000000000000D+00
   238  2.3700000000000D+00  0.0000000000000D+00  0.0000000000000D+00
   239  2.3800000000000D+00  0.0000000000000D+00  0.0000000000000D+00
   240  2.3900000000000D+00  0.0000000000000D+00  0.0000000000000D+00
   241  2.4000000000000D+00  0.0000000000000D+00  0.0000000000000D+00
   242  2.4100000000000D+00  0.0000000000000D+00  0.0000000000000D+00
   243  2.4200000000000D+00  0.0000000000000D+00  0.0000000000000D+00
   244  2.4300000000000D+00  0.0000000000000D+00  0.0000000000000D+00
   245  2.4400000000000D+00  0.0000000000000D+00  0.0000000000000D+00
   246  2.4500000000000D+00  0.0000000000000D+00  0.0000000000000D+00
   247  2.4600000000000D+00  0.0000000000000D+00  0.0000000000000D+00
   248  2.4700000000000D+00  0.0000000000000D+00  0.0000000000000D+00
   249  2.4800000000000D+00  0.0000000000000D+00  0.0000000000000D+00
   250  2.4900000000000D+00  0.0000000000000D+00  0.0000000000000D+00
   251  2.5000000000000D+00  0.0000000000000D+00  0.0000000000000D+00
   252  2.5100000000000D+00  0.0000000000000D+00  0.0000000000000D+00
   253  2.5200000000000D+00  0.0000000000000D+00  0.0000000000000D+00
   254  2.5300000000000D+00  0.0000000000000D+00  0.0000000000000D+00
   255  2.5400000000000D+00  0.0000000000000D+00  0.0000000000000D+00
   256  2.5500000000000D+00  0.0000000000000D+00  0.0000000000000D+00
   257  2.5600000000000D+00  0.0000000000000D+00  0.0000000000000D+00
   258  2.5700000000000D+00  0.0000000000000D+00  0.0000000000000D+00
   259  2.5800000000000D+00  0.0000000000000D+00  0.0000000000000D+00
   260  2.5900000000000D+00  0.0000000000000D+00  0.0000000000000D+00
   261  2.6000000000000D+00  0.0000000000000D+00  0.0000000000000D+00
   262  2.6100000000000D+00  0.0000000000000D+00  0.0000000000000D+00
   263  2.6200000000000D+00  0.0000000000000D+00  0.0000000000000D+00
   264  2.6300000000000D+00  0.0000000000000D+00  0.0000000000000D+00
   265  2.6400000000000D+00  0.0000000000000D+00  0.0000000000000D+00
   266  2.6500000000000D+00  0.0000000000000D+00  0.0000000000000D+00
   267  2.6600000000000D+00  0.0000000000000D+00  0.0000000000000D+00
   268  2.6700000000000D+00  0.0000000000000D+00  0.0000000000000D+00
   269  2.6800000000000D+00  0.0000000000000D+00  0.0000000000000D+00
   270  2.6900000000000D+00  0.0000000000000D+00  0.0000000000000D+00
   271  2.7000000000000D+00  0.0000000000000D+00  0.0000000000000D+00
   272  2.7100000000000D+00  0.0000000000000D+00  0.0000000000000D+00
   273  2.7200000000000D+00  0.0000000000000D+00  0.0000000000000D+00
   274  2.7300000000000D+00  0.0000000000000D+00  0.0000000000000D+00
   275  2.7400000000000D+00  0.0000000000000D+00  0.0000000000000D+00
   276  2.7500000000000D+00  0.0000000000000D+00  0.0000000000000D+00
   277  2.7600000000000D+00  0.0000000000000D+00  0.0000000000000D+00
   278  2.7700000000000D+00  0.0000000000000D+00  0.0000000000000D+00
   279  2.7800000000000D+00  0.0000000000000D+00  0.0000000000000D+00
   280  2.7900000000000D+00  0.0000000000000D+00  0.0000000000000D+00
   281  2.8000000000000D+00  0.0000000000000D+00  0.0000000000000D+00
   282  2.8100000000000D+00  0.0000000000000D+00  0.0000000000000D+00
   283  2.8200000000000D+00  0.0000000000000D+00  0.0000000000000D+00
   284  2.8300000000000D+00  0.0000000000000D+00  0.0000000000000D+00
   285  2.8400000000000D+00  0.0000000000000D+00  0.0000000000000D+00
   286  2.8500000000000D+00  0.0000000000000D+00  0.0000000000000D+00
   287  2.8600000000000D+00  0.0000000000000D+00  0.0000000000000D+00
   288  2.8700000000000D+00  0.0000000000000D+00  0.0000000000000D+00
   289  2.8800000000000D+00  0.0000000000000D+00  0.0000000000000D+00
   290  2.8900000000000D+00  0.0000000000000D+00  0.0000000000000D+00
   291  2.9000000000000D+00  0.0000000000000D+00  0.0000000000000D+00
   292  2.9100000000000D+00  0.0000000000000D+00  0.0000000000000D+00
   293  2.9200000000000D+00  0.0000000000000D+00  0.0000000000000D+00
   294  2.9300000000000D+00  0.0000000000000D+00  0.0000000000000D+00
   295  2.9400000000000D+00  0.0000000000000D+00  0.0000000000000D+00
   296  2.9500000000000D+00  0.0000000000000D+00  0.0000000000000D+00
   297  2.9600000000000D+00  0.0000000000000D+00  0.0000000000000D+00
   298  2.9700000000000D+00  0.0000000000000D+00  0.0000000000000D+00
   299  2.9800000000000D+00  0.0000000000000D+00  0.0000000000000D+00
   300  2.9900000000000D+00  0.0000000000000D+00  0.0000000000000D+00
   301  3.0000000000000D+00  0.0000000000000D+00  0.0000000000000D+00
   302  3.0100000000000D+00  0.0000000000000D+00  0.0000000000000D+00
   303  3.0200000000000D+00  0.0000000000000D+00  0.0000000000000D+00
   304  3.0300000000000D+00  0.0000000000000D+00  0.0000000000000D+00
   305  3.0400000000000D+00  0.0000000000000D+00  0.0000000000000D+00
   306  3.0500000000000D+00  0.0000000000000D+00  0.0000000000000D+00
   307  3.0600000000000D+00  0.0000000000000D+00  0.0000000000000D+00
   308  3.0700000000000D+00  0.0000000000000D+00  0.0000000000000D+00
   309  3.0800000000000D+00  0.0000000000000D+00  0.0000000000000D+00
   310  3.0900000000000D+00  0.0000000000000D+00  0.0000000000000D+00
   311  3.1000000000000D+00  0.0000000000000D+00  0.0000000000000D+00
   312  3.1100000000000D+00  0.0000000000000D+00  0.0000000000000D+00
   313  3.1200000000000D+00  0.0000000000000D+00  0.0000000000000D+00
   314  3.1300000000000D+00  0.0000000000000D+00  0.0000000000000D+00
   315  3.1400000000000D+00  0.0000000000000D+00  0.0000000000000D+00
   316  3.1500000000000D+00  0.0000000000000D+00  0.0000000000000D+00
   317  3.1600000000000D+00  0.0000000000000D+00  0.0000000000000D+00
   318  3.1700000000000D+00  0.0000000000000D+00  0.0000000000000D+00
   319  3.1800000000000D+00  0.0000000000000D+00  0.0000000000000D+00
   320  3.1900000000000D+00  0.0000000000000D+00  0.0000000000000D+00
   321  3.2000000000000D+00  0.0000000000000D+00  0.0000000000000D+00
   322  3.2100000000000D+00  0.0000000000000D+00  0.0000000000000D+00
   323  3.2200000000000D+00  0.0000000000000D+00  0.0000000000000D+00
   324  3.2300000000000D+00  0.0000000000000D+00  0.0000000000000D+00
   325  3.2400000000000D+00  0.0000000000000D+00  0.0000000000000D+00
   326  3.2500000000000D+00  0.0000000000000D+00  0.0000000000000D+00
   327  3.2600000000000D+00  0.0000000000000D+00  0.0000000000000D+00
   328  3.2700000000000D+00  0.0000000000000D+00  0.0000000000000D+00
   329  3.2800000000000D+00  0.0000000000000D+00  0.0000000000000D+00
   330  3.2900000000000D+00  0.0000000000000D+00  0.0000000000000D+00
   331  3.3000000000000D+00  0.0000000000000D+00  0.0000000000000D+00
   332  3.3100000000000D+00  0.0000000000000D+00  0.0000000000000D+00
   333  3.3200000000000D+00  0.0000000000000D+00  0.0000000000000D+00
   334  3.3300000000000D+00  0.0000000000000D+00  0.0000000000000D+00
   335  3.3400000000000D+00  0.0000000000000D+00  0.0000000000000D+00
   336  3.3500000000000D+00  0.0000000000000D+00  0.0000000000000D+00
   337  3.3600000000000D+00  0.0000000000000D+00  0.0000000000000D+00
   338  3.3700000000000D+00  0.0000000000000D+00  0.0000000000000D+00
   339  3.3800000000000D+00  0.0000000000000D+00  0.0000000000000D+00
   340  3.3900000000000D+00  0.0000000000000D+00  0.0000000000000D+00
   341  3.4000000000000D+00  0.0000000000000D+00  0.0000000000000D+00
   342  3.4100000000000D+00  0.0000000000000D+00  0.0000000000000D+00
   343  3.4200000000000D+00  0.0000000000000D+00  0.0000000000000D+00
   344  3.4300000000000D+00  0.0000000000000D+00  0.0000000000000D+00
   345  3.4400000000000D+00  0.0000000000000D+00  0.0000000000000D+00
   346  3.4500000000000D+00  0.0000000000000D+00  0.0000000000000D+00
   347  3.4600000000000D+00  0.0000000000000D+00  0.0000000000000D+00
   348  3.4700000000000D+00  0.0000000000000D+00  0.0000000000000D+00
   349  3.4800000000000D+00  0.0000000000000D+00  0.0000000000000D+00
   350  3.4900000000000D+00  0.0000000000000D+00  0.0000000000000D+00
   351  3.5000000000000D+00  0.0000000000000D+00  0.0000000000000D+00
   352  3.5100000000000D+00  0.0000000000000D+00  0.0000000000000D+00
   353  3.5200000000000D+00  0.0000000000000D+00  0.0000000000000D+00
   354  3.5300000000000D+00  0.0000000000000D+00  0.0000000000000D+00
   355  3.5400000000000D+00  0.0000000000000D+00  0.0000000000000D+00
   356  3.5500000000000D+00  0.0000000000000D+00  0.0000000000000D+00
   357  3.5600000000000D+00  0.0000000000000D+00  0.0000000000000D+00
   358  3.5700000000000D+00  0.0000000000000D+00  0.0000000000000D+00
   359  3.5800000000000D+00  0.0000000000000D+00  0.0000000000000D+00
   360  3.5900000000000D+00  0.0000000000000D+00  0.0000000000000D+00
   361  3.6000000000000D+00  0.0000000000000D+00  0.0000000000000D+00
   362  3.6100000000000D+00  0.0000000000000D+00  0.0000000000000D+00
   363  3.6200000000000D+00  0.0000000000000D+00  0.0000000000000D+00
   364  3.6300000000000D+00  0.0000000000000D+00  0.0000000000000D+00
   365  3.6400000000000D+00  0.0000000000000D+00  0.0000000000000D+00
   366  3.6500000000000D+00  0.0000000000000D+00  0.0000000000000D+00
   367  3.6600000000000D+00  0.0000000000000D+00  0.0000000000000D+00
   368  3.6700000000000D+00  0.0000000000000D+00  0.0000000000000D+00
   369  3.6800000000000D+00  0.0000000000000D+00  0.0000000000000D+00
   370  3.6900000000000D+00  0.0000000000000D+00  0.0000000000000D+00
   371  3.7000000000000D+00  0.0000000000000D+00  0.0000000000000D+00
   372  3.7100000000000D+00  0.0000000000000D+00  0.0000000000000D+00
   373  3.7200000000000D+00  0.0000000000000D+00  0.0000000000000D+00
   374  3.7300000000000D+00  0.0000000000000D+00  0.0000000000000D+00
   375  3.7400000000000D+00  0.0000000000000D+00  0.0000000000000D+00
   376  3.7500000000000D+00  0.0000000000000D+00  0.0000000000000D+00
   377  3.7600000000000D+00  0.0000000000000D+00  0.0000000000000D+00
   378  3.7700000000000D+00  0.0000000000000D+00  0.0000000000000D+00
   379  3.7800000000000D+00  0.0000000000000D+00  0.0000000000000D+00
   380  3.7900000000000D+00  0.0000000000000D+00  0.0000000000000D+00
   381  3.8000000000000D+00  0.0000000000000D+00  0.0000000000000D+00
   382  3.8100000000000D+00  0.0000000000000D+00  0.0000000000000D+00
   383  3.8200000000000D+00  0.0000000000000D+00  0.0000000000000D+00
   384  3.8300000000000D+00  0.0000000000000D+00  0.0000000000000D+00
   385  3.8400000000000D+00  0.0000000000000D+00  0.0000000000000D+00
   386  3.8500000000000D+00  0.0000000000000D+00  0.0000000000000D+00
   387  3.8600000000000D+00  0.0000000000000D+00  0.0000000000000D+00
   388  3.8700000000000D+00  0.0000000000000D+00  0.0000000000000D+00
   389  3.8800000000000D+00  0.0000000000000D+00  0.0000000000000D+00
   390  3.8900000000000D+00  0.0000000000000D+00  0.0000000000000D+00
   391  3.9000000000000D+00  0.0000000000000D+00  0.0000000000000D+00
   392  3.9100000000000D+00  0.0000000000000D+00  0.0000000000000D+00
   393  3.9200000000000D+00  0.0000000000000D+00  0.0000000000000D+00
   394  3.9300000000000D+00  0.0000000000000D+00  0.0000000000000D+00
   395  3.9400000000000D+00  0.0000000000000D+00  0.0000000000000D+00
   396  3.9500000000000D+00  0.0000000000000D+00  0.0000000000000D+00
   397  3.9600000000000D+00  0.0000000000000D+00  0.0000000000000D+00
   398  3.9700000000000D+00  0.0000000000000D+00  0.0000000000000D+00
   399  3.9800000000000D+00  0.0000000000000D+00  0.0000000000000D+00
   400  3.9900000000000D+00  0.0000000000000D+00  0.0000000000000D+00
   401  4.0000000000000D+00  0.0000000000000D+00  0.0000000000000D+00
   402  4.0100000000000D+00  0.0000000000000D+00  0.0000000000000D+00
   403  4.0200000000000D+00  0.0000000000000D+00  0.0000000000000D+00
   404  4.0300000000000D+00  0.0000000000000D+00  0.0000000000000D+00
   405  4.0400000000000D+00  0.0000000000000D+00  0.0000000000000D+00
   406  4.0500000000000D+00  0.0000000000000D+00  0.0000000000000D+00
   407  4.0600000000000D+00  0.0000000000000D+00  0.0000000000000D+00
   408  4.0700000000000D+00  0.0000000000000D+00  0.0000000000000D+00
   409  4.0800000000000D+00  0.0000000000000D+00  0.0000000000000D+00
   410  4.0900000000000D+00  0.0000000000000D+00  0.0000000000000D+00
   411  4.1000000000000D+00  0.0000000000000D+00  0.0000000000000D+00
   412  4.1100000000000D+00  0.0000000000000D+00  0.0000000000000D+00
   413  4.1200000000000D+00  0.0000000000000D+00  0.0000000000000D+00
   414  4.1300000000000D+00  0.0000000000000D+00  0.0000000000000D+00
   415  4.1400000000000D+00  0.0000000000000D+00  0.0000000000000D+00
   416  4.1500000000000D+00  0.0000000000000D+00  0.0000000000000D+00
   417  4.1600000000000D+00  0.0000000000000D+00  0.0000000000000D+00
   418  4.1700000000000D+00  0.0000000000000D+00  0.0000000000000D+00
   419  4.1800000000000D+00  0.0000000000000D+00  0.0000000000000D+00
   420  4.1900000000000D+00  0.0000000000000D+00  0.0000000000000D+00
   421  4.2000000000000D+00  0.0000000000000D+00  0.0000000000000D+00
   422  4.2100000000000D+00  0.0000000000000D+00  0.0000000000000D+00