Pb    ONCVPSP-3.3.0  r_core=   2.42823   2.42823   2.10438
     82.0000     14.0000      220117    zatom,zion,pspd
     8      11   2     4   600     0    pspcod,pspxc,lmax,lloc,mmax,r2well
  5.99000000  0.00000000  0.00000000    rchrg fchrg qchrg
     2     2     2     0     0    nproj
     1     1           extension_switch
   0                         6.2521892055623D+00  1.2044589101962D+00
     1  0.0000000000000D+00  2.3064397614014D-12 -5.6872007103692D-12
     2  1.0000000000000D-02  5.2861253655200D-03  2.2146983060392D-02
     3  2.0000000000000D-02  1.0607513984296D-02  4.4221925951127D-02
     4  3.0000000000000D-02  1.5999315174646D-02  6.6153015008507D-02
     5  4.0000000000000D-02  2.1496450673976D-02  8.7868888954674D-02
     6  5.0000000000000D-02  2.7133501570164D-02  1.0929886352679D-01
     7  6.0000000000000D-02  3.2944596097553D-02  1.3037315423369D-01
     8  7.0000000000000D-02  3.8963298583044D-02  1.5102309662249D-01
     9  8.0000000000000D-02  4.5222499825534D-02  1.7118136344329D-01
    10  9.0000000000000D-02  5.1754309189022D-02  1.9078217810723D-01
    11  1.0000000000000D-01  5.8589948686291D-02  2.0976152384152D-01
    12  1.1000000000000D-01  6.5759649326056D-02  2.2805734795521D-01
    13  1.2000000000000D-01  7.3292549991872D-02  2.4560976064046D-01
    14  1.3000000000000D-01  8.1216599115965D-02  2.6236122774675D-01
    15  1.4000000000000D-01  8.9558459405436D-02  2.7825675697969D-01
    16  1.5000000000000D-01  9.8343415872007D-02  2.9324407699107D-01
    17  1.6000000000000D-01  1.0759528740966D-01  3.0727380884366D-01
    18  1.7000000000000D-01  1.1733634215719D-01  3.2029962935211D-01
    19  1.8000000000000D-01  1.2758721687462D-01  3.3227842582065D-01
    20  1.9000000000000D-01  1.3836684055425D-01  3.4317044171845D-01
    21  2.0000000000000D-01  1.4969236247779D-01  3.5293941285558D-01
    22  2.1000000000000D-01  1.6157908492177D-01  3.6155269364512D-01
    23  2.2000000000000D-01  1.7404040070330D-01  3.6898137306098D-01
    24  2.3000000000000D-01  1.8708773574764D-01  3.7520037992649D-01
    25  2.4000000000000D-01  2.0073049684822D-01  3.8018857719446D-01
    26  2.5000000000000D-01  2.1497602477804D-01  3.8392884490746D-01
    27  2.6000000000000D-01  2.2982955289949D-01  3.8640815155460D-01
    28  2.7000000000000D-01  2.4529417140732D-01  3.8761761357091D-01
    29  2.8000000000000D-01  2.6137079732637D-01  3.8755254275508D-01
    30  2.9000000000000D-01  2.7805815037272D-01  3.8621248141281D-01
    31  3.0000000000000D-01  2.9535273477297D-01  3.8360122506416D-01
    32  3.1000000000000D-01  3.1324882712253D-01  3.7972683258641D-01
    33  3.2000000000000D-01  3.3173847034927D-01  3.7460162369652D-01
    34  3.3000000000000D-01  3.5081147383421D-01  3.6824216371146D-01
    35  3.4000000000000D-01  3.7045541972594D-01  3.6066923555862D-01
    36  3.5000000000000D-01  3.9065567547013D-01  3.5190779904341D-01
    37  3.6000000000000D-01  4.1139541255993D-01  3.4198693741610D-01
    38  3.7000000000000D-01  4.3265563149733D-01  3.3093979131540D-01
    39  3.8000000000000D-01  4.5441519293977D-01  3.1880348020179D-01
    40  3.9000000000000D-01  4.7665085498981D-01  3.0561901142918D-01
    41  4.0000000000000D-01  4.9933731657014D-01  2.9143117713948D-01
    42  4.1000000000000D-01  5.2244726680920D-01  2.7628843919985D-01
    43  4.2000000000000D-01  5.4595144034709D-01  2.6024280243821D-01
    44  4.3000000000000D-01  5.6981867845481D-01  2.4334967646768D-01
    45  4.4000000000000D-01  5.9401599584357D-01  2.2566772642535D-01
    46  4.5000000000000D-01  6.1850865302525D-01  2.0725871298529D-01
    47  4.6000000000000D-01  6.4326023406860D-01  1.8818732203941D-01
    48  4.7000000000000D-01  6.6823272958027D-01  1.6852098447312D-01
    49  4.8000000000000D-01  6.9338662472422D-01  1.4832968649459D-01
    50  4.9000000000000D-01  7.1868099207760D-01  1.2768577100862D-01
    51  5.0000000000000D-01  7.4407358910640D-01  1.0666373055587D-01
    52  5.1000000000000D-01  7.6952096002964D-01  8.5339992368169D-02
    53  5.2000000000000D-01  7.9497854182646D-01  6.3792696118318D-02
    54  5.3000000000000D-01  8.2040077412722D-01  4.2101464970110D-02
    55  5.4000000000000D-01  8.4574121271613D-01  2.0347170559430D-02
    56  5.5000000000000D-01  8.7095264636076D-01 -1.3883074386279D-03
    57  5.6000000000000D-01  8.9598721667153D-01 -2.3022326479303D-02
    58  5.7000000000000D-01  9.2079654068311D-01 -4.4471730356555D-02
    59  5.8000000000000D-01  9.4533183583918D-01 -6.5653101733476D-02
    60  5.9000000000000D-01  9.6954404705203D-01 -8.6483017261195D-02
    61  6.0000000000000D-01  9.9338397549950D-01 -1.0687830453757D-01
    62  6.1000000000000D-01  1.0168024088137D+00 -1.2675630014420D-01
    63  6.2000000000000D-01  1.0397502523088D+00 -1.4603510798959D-01
    64  6.3000000000000D-01  1.0621786608878D+00 -1.6463385717756D-01
    65  6.4000000000000D-01  1.0840391712654D+00 -1.8247295861396D-01
    66  6.5000000000000D-01  1.1052838341357D+00 -1.9947435956072D-01
    67  6.6000000000000D-01  1.1258653459141D+00 -2.1556179534462D-01
    68  6.7000000000000D-01  1.1457371796778D+00 -2.3066103742942D-01
    69  6.8000000000000D-01  1.1648537149297D+00 -2.4470013706284D-01
    70  6.9000000000000D-01  1.1831703658087D+00 -2.5760966371640D-01
    71  7.0000000000000D-01  1.2006437073724D+00 -2.6932293754399D-01
    72  7.1000000000000D-01  1.2172315995786D+00 -2.7977625509632D-01
    73  7.2000000000000D-01  1.2328933085964D+00 -2.8890910754198D-01
    74  7.3000000000000D-01  1.2475896250824D+00 -2.9666439066158D-01
    75  7.4000000000000D-01  1.2612829790607D+00 -3.0298860590051D-01
    76  7.5000000000000D-01  1.2739375510571D+00 -3.0783205178659D-01
    77  7.6000000000000D-01  1.2855193791400D+00 -3.1114900504280D-01
    78  7.7000000000000D-01  1.2959964615339D+00 -3.1289789075130D-01
    79  7.8000000000000D-01  1.3053388544812D+00 -3.1304144095319D-01
    80  7.9000000000000D-01  1.3135187650359D+00 -3.1154684109985D-01
    81  8.0000000000000D-01  1.3205106384917D+00 -3.0838586380408D-01
    82  8.1000000000000D-01  1.3262912401530D+00 -3.0353498937534D-01
    83  8.2000000000000D-01  1.3308397311788D+00 -2.9697551266005D-01
    84  8.3000000000000D-01  1.3341377382417D+00 -2.8869363574811D-01
    85  8.4000000000000D-01  1.3361694167598D+00 -2.7868054614743D-01
    86  8.5000000000000D-01  1.3369215074814D+00 -2.6693248007200D-01
    87  8.6000000000000D-01  1.3363833862152D+00 -2.5345077053356D-01
    88  8.7000000000000D-01  1.3345471065241D+00 -2.3824187997314D-01
    89  8.8000000000000D-01  1.3314074352149D+00 -2.2131741721712D-01
    90  8.9000000000000D-01  1.3269618804820D+00 -2.0269413859062D-01
    91  9.0000000000000D-01  1.3212107125819D+00 -1.8239393307200D-01
    92  9.1000000000000D-01  1.3141569769384D+00 -1.6044379142278D-01
    93  9.2000000000000D-01  1.3058064996015D+00 -1.3687575927932D-01
    94  9.3000000000000D-01  1.2961678850050D+00 -1.1172687424508D-01
    95  9.4000000000000D-01  1.2852525059932D+00 -8.5039087075215D-02
    96  9.5000000000000D-01  1.2730744861085D+00 -5.6859167098167D-02
    97  9.6000000000000D-01  1.2596506741586D+00 -2.7238592072330D-02
    98  9.7000000000000D-01  1.2450006111039D+00  3.7665772711390D-03
    99  9.8000000000000D-01  1.2291464893318D+00  3.6095837695645D-02
   100  9.9000000000000D-01  1.2121131044076D+00  6.9684398580382D-02
   101  1.0000000000000D+00  1.1939277994173D+00  1.0446335128804D-01
   102  1.0100000000000D+00  1.1746204020393D+00  1.4035985232117D-01
   103  1.0200000000000D+00  1.1542231545096D+00  1.7729731975890D-01
   104  1.0300000000000D+00  1.1327706366646D+00  2.1519564241839D-01
   105  1.0400000000000D+00  1.1102996822702D+00  2.5397140113835D-01
   106  1.0500000000000D+00  1.0868492888701D+00  2.9353810153632D-01
   107  1.0600000000000D+00  1.0624605214041D+00  3.3380641754907D-01
   108  1.0700000000000D+00  1.0371764098722D+00  3.7468444502418D-01
   109  1.0800000000000D+00  1.0110418413372D+00  4.1607796459029D-01
   110  1.0900000000000D+00  9.8410344658245D-01  4.5789071299892D-01
   111  1.1000000000000D+00  9.5640948175436D-01  5.0002466209417D-01
   112  1.1100000000000D+00  9.2800970534143D-01  5.4238030453843D-01
   113  1.1200000000000D+00  8.9895525085529D-01  5.8485694539062D-01
   114  1.1300000000000D+00  8.6929849559596D-01  6.2735299860831D-01
   115  1.1400000000000D+00  8.3909292589726D-01  6.6976628752297D-01
   116  1.1500000000000D+00  8.0839299926027D-01  7.1199434831863D-01
   117  1.1600000000000D+00  7.7725400379479D-01  7.5393473552720D-01
   118  1.1700000000000D+00  7.4573191539945D-01  7.9548532854005D-01
   119  1.1800000000000D+00  7.1388325311902D-01  8.3654463812786D-01
   120  1.1900000000000D+00  6.8176493312365D-01  8.7701211195474D-01
   121  1.2000000000000D+00  6.4943412176262D-01  9.1678843806815D-01
   122  1.2100000000000D+00  6.1694808814765D-01  9.5577584535014D-01
   123  1.2200000000000D+00  5.8436405672336D-01  9.9387839992091D-01
   124  1.2300000000000D+00  5.5173906028423D-01  1.0310022964891D+00
   125  1.2400000000000D+00  5.1912979389674D-01  1.0670561436612D+00
   126  1.2500000000000D+00  4.8659247018030D-01  1.1019512422429D+00
   127  1.2600000000000D+00  4.5418267640264D-01  1.1356018555644D+00
   128  1.2700000000000D+00  4.2195523383427D-01  1.1679254709095D+00
   129  1.2800000000000D+00  3.8996405979820D-01  1.1988430511514D+00
   130  1.2900000000000D+00  3.5826203285337D-01  1.2282792756979D+00
   131  1.3000000000000D+00  3.2690086152686D-01  1.2561627699242D+00
   132  1.3100000000000D+00  2.9593095699988D-01  1.2824263222988D+00
   133  1.3200000000000D+00  2.6540131015618D-01  1.3070070884017D+00
   134  1.3300000000000D+00  2.3535937336098D-01  1.3298467811504D+00
   135  1.3400000000000D+00  2.0585094733687D-01  1.3508918465541D+00
   136  1.3500000000000D+00  1.7692007349778D-01  1.3700936243318D+00
   137  1.3600000000000D+00  1.4860893204841D-01  1.3874084928767D+00
   138  1.3700000000000D+00  1.2095774617434D-01  1.4027979980008D+00
   139  1.3800000000000D+00  9.4004692613468D-02  1.4162289649859D+00
   140  1.3900000000000D+00  6.7785818846801D-02  1.4276735936039D+00
   141  1.4000000000000D+00  4.2334967197972D-02  1.4371095356356D+00
   142  1.4100000000000D+00  1.7683706016798D-02  1.4445199547119D+00
   143  1.4200000000000D+00 -6.1387318403773D-03  1.4498935681997D+00
   144  1.4300000000000D+00 -2.9105503045591D-02  1.4532246709234D+00
   145  1.4400000000000D+00 -5.1192200262635D-02  1.4545131407575D+00
   146  1.4500000000000D+00 -7.2376890843698D-02  1.4537644258622D+00
   147  1.4600000000000D+00 -9.2640147746224D-02  1.4509895137758D+00
   148  1.4700000000000D+00 -1.1196507256105D-01  1.4462048823429D+00
   149  1.4800000000000D+00 -1.3033731062049D-01  1.4394324326488D+00
   150  1.4900000000000D+00 -1.4774505822494D-01  1.4306994042847D+00
   151  1.5000000000000D+00 -1.6417906192039D-01  1.4200382730304D+00
   152  1.5100000000000D+00 -1.7963260999369D-01  1.4074866315740D+00
   153  1.5200000000000D+00 -1.9410151613439D-01  1.3930870533936D+00
   154  1.5300000000000D+00 -2.0758409547922D-01  1.3768869405299D+00
   155  1.5400000000000D+00 -2.2008113308758D-01  1.3589383555983D+00
   156  1.5500000000000D+00 -2.3159584504401D-01  1.3392978387231D+00
   157  1.5600000000000D+00 -2.4213383237099D-01  1.3180262100382D+00
   158  1.5700000000000D+00 -2.5170302791385D-01  1.2951883583630D+00
   159  1.5800000000000D+00 -2.6031363651074D-01  1.2708530169695D+00
   160  1.5900000000000D+00 -2.6797806858109D-01  1.2450925269962D+00
   161  1.6000000000000D+00 -2.7471086755728D-01  1.2179825896448D+00
   162  1.6100000000000D+00 -2.8052863128182D-01  1.1896020077043D+00
   163  1.6200000000000D+00 -2.8544992786958D-01  1.1600324176713D+00
   164  1.6300000000000D+00 -2.8949520618550D-01  1.1293580130813D+00
   165  1.6400000000000D+00 -2.9268670146048D-01  1.0976652603436D+00
   166  1.6500000000000D+00 -2.9504833625635D-01  1.0650426078239D+00
   167  1.6600000000000D+00 -2.9660561729810D-01  1.0315801894352D+00
   168  1.6700000000000D+00 -2.9738552844637D-01  9.9736952360786D-01
   169  1.6800000000000D+00 -2.9741642031965D-01  9.6250320885497D-01
   170  1.6900000000000D+00 -2.9672789688991D-01  9.2707461690625D-01
   171  1.7000000000000D+00 -2.9535069955103D-01  8.9117758457341D-01
   172  1.7100000000000D+00 -2.9331658902482D-01  8.5490610540331D-01
   173  1.7200000000000D+00 -2.9065822558747D-01  8.1835402220544D-01
   174  1.7300000000000D+00 -2.8740904801903D-01  7.8161472159510D-01
   175  1.7400000000000D+00 -2.8360315172781D-01  7.4478083151401D-01
   176  1.7500000000000D+00 -2.7927516649609D-01  7.0794392298307D-01
   177  1.7600000000000D+00 -2.7446013424239D-01  6.7119421684807D-01
   178  1.7700000000000D+00 -2.6919338730918D-01  6.3462029694572D-01
   179  1.7800000000000D+00 -2.6351042757707D-01  5.9830883014551D-01
   180  1.7900000000000D+00 -2.5744680700053D-01  5.6234429493165D-01
   181  1.8000000000000D+00 -2.5103800974768D-01  5.2680871862926D-01
   182  1.8100000000000D+00 -2.4431933661222D-01  4.9178142510671D-01
   183  1.8200000000000D+00 -2.3732579179165D-01  4.5733879283783D-01
   184  1.8300000000000D+00 -2.3009197270438D-01  4.2355402509569D-01
   185  1.8400000000000D+00 -2.2265196292606D-01  3.9049693217913D-01
   186  1.8500000000000D+00 -2.1503922882498D-01  3.5823372710425D-01
   187  1.8600000000000D+00 -2.0728652006052D-01  3.2682683495159D-01
   188  1.8700000000000D+00 -1.9942577431076D-01  2.9633471664123D-01
   189  1.8800000000000D+00 -1.9148802660090D-01  2.6681170794161D-01
   190  1.8900000000000D+00 -1.8350332324395D-01  2.3830787346752D-01
   191  1.9000000000000D+00 -1.7550064110286D-01  2.1086887741097D-01
   192  1.9100000000000D+00 -1.6750781172521D-01  1.8453586950056D-01
   193  1.9200000000000D+00 -1.5955145138346D-01  1.5934538879077D-01
   194  1.9300000000000D+00 -1.5165689634680D-01  1.3532928320023D-01
   195  1.9400000000000D+00 -1.4384814425882D-01  1.1251464692482D-01
   196  1.9500000000000D+00 -1.3614780127821D-01  9.0923774577613D-02
   197  1.9600000000000D+00 -1.2857703524306D-01  7.0574132512008D-02
   198  1.9700000000000D+00 -1.2115553515629D-01  5.1478347886255D-02
   199  1.9800000000000D+00 -1.1390147643744D-01  3.3644213795203D-02
   200  1.9900000000000D+00 -1.0683149290510D-01  1.7074712735546D-02
   201  2.0000000000000D+00 -9.9960654430122D-02  1.7680554639315D-03
   202  2.0100000000000D+00 -9.3302451189840D-02 -1.2282262615948D-02
   203  2.0200000000000D+00 -8.6868783863190D-02 -2.5087389422954D-02
   204  2.0300000000000D+00 -8.0669959840405D-02 -3.6663028571053D-02
   205  2.0400000000000D+00 -7.4714694800632D-02 -4.7029338574520D-02
   206  2.0500000000000D+00 -6.9010124622252D-02 -5.6210803033719D-02
   207  2.0600000000000D+00 -6.3561809287663D-02 -6.4236129123726D-02
   208  2.0700000000000D+00 -5.8373769296168D-02 -7.1138051046294D-02
   209  2.0800000000000D+00 -5.3448505563603D-02 -7.6953185783670D-02
   210  2.0900000000000D+00 -4.8787022131704D-02 -8.1721881134931D-02
   211  2.1000000000000D+00 -4.4388800081866D-02 -8.5488230693659D-02
   212  2.1100000000000D+00 -4.0251969535181D-02 -8.8299466240486D-02
   213  2.1200000000000D+00 -3.6373398938199D-02 -9.0205607719648D-02
   214  2.1300000000000D+00 -3.2748818274158D-02 -9.1259036258388D-02
   215  2.1400000000000D+00 -2.9372932093903D-02 -9.1514118861581D-02
   216  2.1500000000000D+00 -2.6239624105069D-02 -9.1026545928970D-02
   217  2.1600000000000D+00 -2.3341959167762D-02 -8.9853306226293D-02
   218  2.1700000000000D+00 -2.0672263062099D-02 -8.8052431617357D-02
   219  2.1800000000000D+00 -1.8222196006783D-02 -8.5682759640458D-02
   220  2.1900000000000D+00 -1.5982850636692D-02 -8.2803615560605D-02
   221  2.2000000000000D+00 -1.3944822907986D-02 -7.9474587797187D-02
   222  2.2100000000000D+00 -1.2098297386330D-02 -7.5755258015773D-02
   223  2.2200000000000D+00 -1.0433128425384D-02 -7.1704946344232D-02
   224  2.2300000000000D+00 -8.9389211953095D-03 -6.7382458679484D-02
   225  2.2400000000000D+00 -7.6051118127238D-03 -6.2845838228111D-02
   226  2.2500000000000D+00 -6.4210465507487D-03 -5.8152121283562D-02
   227  2.2600000000000D+00 -5.3760592527320D-03 -5.3357099664099D-02
   228  2.2700000000000D+00 -4.4595467484988D-03 -4.8515090302107D-02
   229  2.2800000000000D+00 -3.6610425031821D-03 -4.3678711318979D-02
   230  2.2900000000000D+00 -2.9702869872296D-03 -3.8898668664563D-02
   231  2.3000000000000D+00 -2.3772955783446D-03 -3.4223551090627D-02
   232  2.3100000000000D+00 -1.8724234355612D-03 -2.9699634952196D-02
   233  2.3200000000000D+00 -1.4464262012274D-03 -2.5370701865330D-02
   234  2.3300000000000D+00 -1.0905177059439D-03 -2.1277866082369D-02
   235  2.3400000000000D+00 -7.9642335693354D-04 -1.7459415068213D-02
   236  2.3500000000000D+00 -5.5634304939544D-04 -1.3953804640253D-02
   237  2.3600000000000D+00 -3.6330089429031D-04 -1.0788383840599D-02
   238  2.3700000000000D+00 -2.1093270156793D-04 -7.9885063656425D-03
   239  2.3800000000000D+00 -9.4494362307411D-05 -5.5650903997168D-03
   240  2.3900000000000D+00 -6.6724598076101D-06 -3.5792633287338D-03
   241  2.4000000000000D+00  5.7996205288980D-05 -2.0693811260458D-03
   242  2.4100000000000D+00  1.0598709615659D-04 -1.0618445248089D-03
   243  2.4200000000000D+00  1.2865893521485D-04 -4.5618656285905D-04
   244  2.4300000000000D+00  1.2095885795682D-04 -1.4677167927096D-04
   245  2.4400000000000D+00  8.0249310801756D-05 -1.5255252256443D-05
   246  2.4500000000000D+00  3.1046473245700D-05  1.0133529349830D-05
   247  2.4600000000000D+00 -5.6142893887908D-06 -2.9635895974202D-06
   248  2.4700000000000D+00 -1.4377276286715D-05 -1.0860028557703D-05
   249  2.4800000000000D+00 -8.0589520713671D-06 -7.3882442830827D-06
   250  2.4900000000000D+00  1.2662542091393D-06  3.0271764365349D-07
   251  2.5000000000000D+00  3.2062366462452D-06  1.0353388825710D-06
   252  2.5100000000000D+00  1.9093974721437D-06  7.4821891031341D-07
   253  2.5200000000000D+00 -1.3828000845303D-07  2.0560089587857D-07
   254  2.5300000000000D+00 -3.5497460792894D-07  5.2779210979819D-07
   255  2.5400000000000D+00 -2.2273655247437D-07  3.3117465963412D-07
   256  2.5500000000000D+00  0.0000000000000D+00  0.0000000000000D+00
   257  2.5600000000000D+00  0.0000000000000D+00  0.0000000000000D+00
   258  2.5700000000000D+00  0.0000000000000D+00  0.0000000000000D+00
   259  2.5800000000000D+00  0.0000000000000D+00  0.0000000000000D+00
   260  2.5900000000000D+00  0.0000000000000D+00  0.0000000000000D+00
   261  2.6000000000000D+00  0.0000000000000D+00  0.0000000000000D+00
   262  2.6100000000000D+00  0.0000000000000D+00  0.0000000000000D+00
   263  2.6200000000000D+00  0.0000000000000D+00  0.0000000000000D+00
   264  2.6300000000000D+00  0.0000000000000D+00  0.0000000000000D+00
   265  2.6400000000000D+00  0.0000000000000D+00  0.0000000000000D+00
   266  2.6500000000000D+00  0.0000000000000D+00  0.0000000000000D+00
   267  2.6600000000000D+00  0.0000000000000D+00  0.0000000000000D+00
   268  2.6700000000000D+00  0.0000000000000D+00  0.0000000000000D+00
   269  2.6800000000000D+00  0.0000000000000D+00  0.0000000000000D+00
   270  2.6900000000000D+00  0.0000000000000D+00  0.0000000000000D+00
   271  2.7000000000000D+00  0.0000000000000D+00  0.0000000000000D+00
   272  2.7100000000000D+00  0.0000000000000D+00  0.0000000000000D+00
   273  2.7200000000000D+00  0.0000000000000D+00  0.0000000000000D+00
   274  2.7300000000000D+00  0.0000000000000D+00  0.0000000000000D+00
   275  2.7400000000000D+00  0.0000000000000D+00  0.0000000000000D+00
   276  2.7500000000000D+00  0.0000000000000D+00  0.0000000000000D+00
   277  2.7600000000000D+00  0.0000000000000D+00  0.0000000000000D+00
   278  2.7700000000000D+00  0.0000000000000D+00  0.0000000000000D+00
   279  2.7800000000000D+00  0.0000000000000D+00  0.0000000000000D+00
   280  2.7900000000000D+00  0.0000000000000D+00  0.0000000000000D+00
   281  2.8000000000000D+00  0.0000000000000D+00  0.0000000000000D+00
   282  2.8100000000000D+00  0.0000000000000D+00  0.0000000000000D+00
   283  2.8200000000000D+00  0.0000000000000D+00  0.0000000000000D+00
   284  2.8300000000000D+00  0.0000000000000D+00  0.0000000000000D+00
   285  2.8400000000000D+00  0.0000000000000D+00  0.0000000000000D+00
   286  2.8500000000000D+00  0.0000000000000D+00  0.0000000000000D+00
   287  2.8600000000000D+00  0.0000000000000D+00  0.0000000000000D+00
   288  2.8700000000000D+00  0.0000000000000D+00  0.0000000000000D+00
   289  2.8800000000000D+00  0.0000000000000D+00  0.0000000000000D+00
   290  2.8900000000000D+00  0.0000000000000D+00  0.0000000000000D+00
   291  2.9000000000000D+00  0.0000000000000D+00  0.0000000000000D+00
   292  2.9100000000000D+00  0.0000000000000D+00  0.0000000000000D+00
   293  2.9200000000000D+00  0.0000000000000D+00  0.0000000000000D+00
   294  2.9300000000000D+00  0.0000000000000D+00  0.0000000000000D+00
   295  2.9400000000000D+00  0.0000000000000D+00  0.0000000000000D+00
   296  2.9500000000000D+00  0.0000000000000D+00  0.0000000000000D+00
   297  2.9600000000000D+00  0.0000000000000D+00  0.0000000000000D+00
   298  2.9700000000000D+00  0.0000000000000D+00  0.0000000000000D+00
   299  2.9800000000000D+00  0.0000000000000D+00  0.0000000000000D+00
   300  2.9900000000000D+00  0.0000000000000D+00  0.0000000000000D+00
   301  3.0000000000000D+00  0.0000000000000D+00  0.0000000000000D+00
   302  3.0100000000000D+00  0.0000000000000D+00  0.0000000000000D+00
   303  3.0200000000000D+00  0.0000000000000D+00  0.0000000000000D+00
   304  3.0300000000000D+00  0.0000000000000D+00  0.0000000000000D+00
   305  3.0400000000000D+00  0.0000000000000D+00  0.0000000000000D+00
   306  3.0500000000000D+00  0.0000000000000D+00  0.0000000000000D+00
   307  3.0600000000000D+00  0.0000000000000D+00  0.0000000000000D+00
   308  3.0700000000000D+00  0.0000000000000D+00  0.0000000000000D+00
   309  3.0800000000000D+00  0.0000000000000D+00  0.0000000000000D+00
   310  3.0900000000000D+00  0.0000000000000D+00  0.0000000000000D+00
   311  3.1000000000000D+00  0.0000000000000D+00  0.0000000000000D+00
   312  3.1100000000000D+00  0.0000000000000D+00  0.0000000000000D+00
   313  3.1200000000000D+00  0.0000000000000D+00  0.0000000000000D+00
   314  3.1300000000000D+00  0.0000000000000D+00  0.0000000000000D+00
   315  3.1400000000000D+00  0.0000000000000D+00  0.0000000000000D+00
   316  3.1500000000000D+00  0.0000000000000D+00  0.0000000000000D+00
   317  3.1600000000000D+00  0.0000000000000D+00  0.0000000000000D+00
   318  3.1700000000000D+00  0.0000000000000D+00  0.0000000000000D+00
   319  3.1800000000000D+00  0.0000000000000D+00  0.0000000000000D+00
   320  3.1900000000000D+00  0.0000000000000D+00  0.0000000000000D+00
   321  3.2000000000000D+00  0.0000000000000D+00  0.0000000000000D+00
   322  3.2100000000000D+00  0.0000000000000D+00  0.0000000000000D+00
   323  3.2200000000000D+00  0.0000000000000D+00  0.0000000000000D+00
   324  3.2300000000000D+00  0.0000000000000D+00  0.0000000000000D+00
   325  3.2400000000000D+00  0.0000000000000D+00  0.0000000000000D+00
   326  3.2500000000000D+00  0.0000000000000D+00  0.0000000000000D+00
   327  3.2600000000000D+00  0.0000000000000D+00  0.0000000000000D+00
   328  3.2700000000000D+00  0.0000000000000D+00  0.0000000000000D+00
   329  3.2800000000000D+00  0.0000000000000D+00  0.0000000000000D+00
   330  3.2900000000000D+00  0.0000000000000D+00  0.0000000000000D+00
   331  3.3000000000000D+00  0.0000000000000D+00  0.0000000000000D+00
   332  3.3100000000000D+00  0.0000000000000D+00  0.0000000000000D+00
   333  3.3200000000000D+00  0.0000000000000D+00  0.0000000000000D+00
   334  3.3300000000000D+00  0.0000000000000D+00  0.0000000000000D+00
   335  3.3400000000000D+00  0.0000000000000D+00  0.0000000000000D+00
   336  3.3500000000000D+00  0.0000000000000D+00  0.0000000000000D+00
   337  3.3600000000000D+00  0.0000000000000D+00  0.0000000000000D+00
   338  3.3700000000000D+00  0.0000000000000D+00  0.0000000000000D+00
   339  3.3800000000000D+00  0.0000000000000D+00  0.0000000000000D+00
   340  3.3900000000000D+00  0.0000000000000D+00  0.0000000000000D+00
   341  3.4000000000000D+00  0.0000000000000D+00  0.0000000000000D+00
   342  3.4100000000000D+00  0.0000000000000D+00  0.0000000000000D+00
   343  3.4200000000000D+00  0.0000000000000D+00  0.0000000000000D+00
   344  3.4300000000000D+00  0.0000000000000D+00  0.0000000000000D+00
   345  3.4400000000000D+00  0.0000000000000D+00  0.0000000000000D+00
   346  3.4500000000000D+00  0.0000000000000D+00  0.0000000000000D+00
   347  3.4600000000000D+00  0.0000000000000D+00  0.0000000000000D+00
   348  3.4700000000000D+00  0.0000000000000D+00  0.0000000000000D+00
   349  3.4800000000000D+00  0.0000000000000D+00  0.0000000000000D+00
   350  3.4900000000000D+00  0.0000000000000D+00  0.0000000000000D+00
   351  3.5000000000000D+00  0.0000000000000D+00  0.0000000000000D+00
   352  3.5100000000000D+00  0.0000000000000D+00  0.0000000000000D+00
   353  3.5200000000000D+00  0.0000000000000D+00  0.0000000000000D+00
   354  3.5300000000000D+00  0.0000000000000D+00  0.0000000000000D+00
   355  3.5400000000000D+00  0.0000000000000D+00  0.0000000000000D+00
   356  3.5500000000000D+00  0.0000000000000D+00  0.0000000000000D+00
   357  3.5600000000000D+00  0.0000000000000D+00  0.0000000000000D+00
   358  3.5700000000000D+00  0.0000000000000D+00  0.0000000000000D+00
   359  3.5800000000000D+00  0.0000000000000D+00  0.0000000000000D+00
   360  3.5900000000000D+00  0.0000000000000D+00  0.0000000000000D+00
   361  3.6000000000000D+00  0.0000000000000D+00  0.0000000000000D+00
   362  3.6100000000000D+00  0.0000000000000D+00  0.0000000000000D+00
   363  3.6200000000000D+00  0.0000000000000D+00  0.0000000000000D+00
   364  3.6300000000000D+00  0.0000000000000D+00  0.0000000000000D+00
   365  3.6400000000000D+00  0.0000000000000D+00  0.0000000000000D+00
   366  3.6500000000000D+00  0.0000000000000D+00  0.0000000000000D+00
   367  3.6600000000000D+00  0.0000000000000D+00  0.0000000000000D+00
   368  3.6700000000000D+00  0.0000000000000D+00  0.0000000000000D+00
   369  3.6800000000000D+00  0.0000000000000D+00  0.0000000000000D+00
   370  3.6900000000000D+00  0.0000000000000D+00  0.0000000000000D+00
   371  3.7000000000000D+00  0.0000000000000D+00  0.0000000000000D+00
   372  3.7100000000000D+00  0.0000000000000D+00  0.0000000000000D+00
   373  3.7200000000000D+00  0.0000000000000D+00  0.0000000000000D+00
   374  3.7300000000000D+00  0.0000000000000D+00  0.0000000000000D+00
   375  3.7400000000000D+00  0.0000000000000D+00  0.0000000000000D+00
   376  3.7500000000000D+00  0.0000000000000D+00  0.0000000000000D+00
   377  3.7600000000000D+00  0.0000000000000D+00  0.0000000000000D+00
   378  3.7700000000000D+00  0.0000000000000D+00  0.0000000000000D+00
   379  3.7800000000000D+00  0.0000000000000D+00  0.0000000000000D+00
   380  3.7900000000000D+00  0.0000000000000D+00  0.0000000000000D+00
   381  3.8000000000000D+00  0.0000000000000D+00  0.0000000000000D+00
   382  3.8100000000000D+00  0.0000000000000D+00  0.0000000000000D+00
   383  3.8200000000000D+00  0.0000000000000D+00  0.0000000000000D+00
   384  3.8300000000000D+00  0.0000000000000D+00  0.0000000000000D+00
   385  3.8400000000000D+00  0.0000000000000D+00  0.0000000000000D+00
   386  3.8500000000000D+00  0.0000000000000D+00  0.0000000000000D+00
   387  3.8600000000000D+00  0.0000000000000D+00  0.0000000000000D+00
   388  3.8700000000000D+00  0.0000000000000D+00  0.0000000000000D+00
   389  3.8800000000000D+00  0.0000000000000D+00  0.0000000000000D+00
   390  3.8900000000000D+00  0.0000000000000D+00  0.0000000000000D+00
   391  3.9000000000000D+00  0.0000000000000D+00  0.0000000000000D+00
   392  3.9100000000000D+00  0.0000000000000D+00  0.0000000000000D+00
   393  3.9200000000000D+00  0.0000000000000D+00  0.0000000000000D+00
   394  3.9300000000000D+00  0.0000000000000D+00  0.0000000000000D+00
   395  3.9400000000000D+00  0.0000000000000D+00  0.0000000000000D+00
   396  3.9500000000000D+00  0.0000000000000D+00  0.0000000000000D+00
   397  3.9600000000000D+00  0.0000000000000D+00  0.0000000000000D+00
   398  3.9700000000000D+00  0.0000000000000D+00  0.0000000000000D+00
   399  3.9800000000000D+00  0.0000000000000D+00  0.0000000000000D+00
   400  3.9900000000000D+00  0.0000000000000D+00  0.0000000000000D+00
   401  4.0000000000000D+00  0.0000000000000D+00  0.0000000000000D+00
   402  4.0100000000000D+00  0.0000000000000D+00  0.0000000000000D+00
   403  4.0200000000000D+00  0.0000000000000D+00  0.0000000000000D+00
   404  4.0300000000000D+00  0.0000000000000D+00  0.0000000000000D+00
   405  4.0400000000000D+00  0.0000000000000D+00  0.0000000000000D+00
   406  4.0500000000000D+00  0.0000000000000D+00  0.0000000000000D+00
   407  4.0600000000000D+00  0.0000000000000D+00  0.0000000000000D+00
   408  4.0700000000000D+00  0.0000000000000D+00  0.0000000000000D+00
   409  4.0800000000000D+00  0.0000000000000D+00  0.0000000000000D+00
   410  4.0900000000000D+00  0.0000000000000D+00  0.0000000000000D+00
   411  4.1000000000000D+00  0.0000000000000D+00  0.0000000000000D+00
   412  4.1100000000000D+00  0.0000000000000D+00  0.0000000000000D+00
   413  4.1200000000000D+00  0.0000000000000D+00  0.0000000000000D+00
   414  4.1300000000000D+00  0.0000000000000D+00  0.0000000000000D+00
   415  4.1400000000000D+00  0.0000000000000D+00  0.0000000000000D+00
   416  4.1500000000000D+00  0.0000000000000D+00  0.0000000000000D+00
   417  4.1600000000000D+00  0.0000000000000D+00  0.0000000000000D+00
   418  4.1700000000000D+00  0.0000000000000D+00  0.0000000000000D+00
   419  4.1800000000000D+00  0.0000000000000D+00  0.0000000000000D+00
   420  4.1900000000000D+00  0.0000000000000D+00  0.0000000000000D+00
   421  4.2000000000000D+00  0.0000000000000D+00  0.0000000000000D+00
   422  4.2100000000000D+00  0.0000000000000D+00  0.0000000000000D+00