Pb    ONCVPSP-3.3.0  r_core=   1.40277   1.50685   1.40277
     82.0000     22.0000      220117    zatom,zion,pspd
     8      11   2     4   600     0    pspcod,pspxc,lmax,lloc,mmax,r2well
  5.99000000  0.00000000  0.00000000    rchrg fchrg qchrg
     2     2     2     0     0    nproj
     1     1           extension_switch
   0                         1.6602949490389D+01  2.1281209520447D+00
     1  0.0000000000000D+00 -7.0665451268326D-10  2.0647952236885D-09
     2  1.0000000000000D-02  8.3144238287639D-02 -2.6364971120339D-02
     3  2.0000000000000D-02  1.6606041653484D-01 -5.2475770035645D-02
     4  3.0000000000000D-02  2.4852157565751D-01 -7.8080660358339D-02
     5  4.0000000000000D-02  3.3030294663038D-01 -1.0293274313076D-01
     6  5.0000000000000D-02  4.1118301606577D-01 -1.2679229056394D-01
     7  6.0000000000000D-02  4.9094455696302D-01 -1.4942897929871D-01
     8  7.0000000000000D-02  5.6937561386325D-01 -1.7062399216158D-01
     9  8.0000000000000D-02  6.4627043235055D-01 -1.9017195945280D-01
    10  9.0000000000000D-02  7.2143032370310D-01 -2.0788271332528D-01
    11  1.0000000000000D-01  7.9466445650237D-01 -2.2358283175304D-01
    12  1.1000000000000D-01  8.6579056813973D-01 -2.3711695190052D-01
    13  1.2000000000000D-01  9.3463559039925D-01 -2.4834883634035D-01
    14  1.3000000000000D-01  1.0010361846245D+00 -2.5716217946883D-01
    15  1.4000000000000D-01  1.0648391833733D+00 -2.6346114557796D-01
    16  1.5000000000000D-01  1.1259019369074D+00 -2.6717063429355D-01
    17  1.6000000000000D-01  1.1840925643275D+00 -2.6823627341779D-01
    18  1.7000000000000D-01  1.2392901106292D+00 -2.6662414355027D-01
    19  1.8000000000000D-01  1.2913846123911D+00 -2.6232024313886D-01
    20  1.9000000000000D-01  1.3402770761997D+00 -2.5532970675984D-01
    21  2.0000000000000D-01  1.3858793752295D+00 -2.4567579338087D-01
    22  2.1000000000000D-01  1.4281140706231D+00 -2.3339866505526D-01
    23  2.2000000000000D-01  1.4669141654240D+00 -2.1855397987113D-01
    24  2.3000000000000D-01  1.5022227997906D+00 -2.0121132597854D-01
    25  2.4000000000000D-01  1.5339928970406D+00 -1.8145252608867D-01
    26  2.5000000000000D-01  1.5621867707346D+00 -1.5936984393912D-01
    27  2.6000000000000D-01  1.5867757034832D+00 -1.3506412580768D-01
    28  2.7000000000000D-01  1.6077395084506D+00 -1.0864291120410D-01
    29  2.8000000000000D-01  1.6250660846183D+00 -8.0218547353282D-02
    30  2.9000000000000D-01  1.6387509767672D+00 -4.9906341988494D-02
    31  3.0000000000000D-01  1.6487969508232D+00 -1.7822788295921D-02
    32  3.1000000000000D-01  1.6552135947085D+00  1.5916105404285D-02
    33  3.2000000000000D-01  1.6580169541367D+00  5.1196350477539D-02
    34  3.3000000000000D-01  1.6572292119112D+00  8.7907348896859D-02
    35  3.4000000000000D-01  1.6528784182268D+00  1.2594307474670D-01
    36  3.5000000000000D-01  1.6449982782699D+00  1.6520304413653D-01
    37  3.6000000000000D-01  1.6336280020604D+00  2.0559305512464D-01
    38  3.7000000000000D-01  1.6188122200163D+00  2.4702568339273D-01
    39  3.8000000000000D-01  1.6006009661625D+00  2.8942052385795D-01
    40  3.9000000000000D-01  1.5790497292799D+00  3.3270417309034D-01
    41  4.0000000000000D-01  1.5542195706187D+00  3.7680995224933D-01
    42  4.1000000000000D-01  1.5261773051230D+00  4.2167737518326D-01
    43  4.2000000000000D-01  1.4949957414411D+00  4.6725137127093D-01
    44  4.3000000000000D-01  1.4607539743794D+00  5.1348127744246D-01
    45  4.4000000000000D-01  1.4235377219073D+00  5.6031961851539D-01
    46  4.5000000000000D-01  1.3834396973757D+00  6.0772069943887D-01
    47  4.6000000000000D-01  1.3405600063025D+00  6.5563903717604D-01
    48  4.7000000000000D-01  1.2950065559171D+00  7.0402766369549D-01
    49  4.8000000000000D-01  1.2468954646874D+00  7.5283633481668D-01
    50  4.9000000000000D-01  1.1963514582803D+00  8.0200968239635D-01
    51  5.0000000000000D-01  1.1435082378609D+00  8.5148534949645D-01
    52  5.1000000000000D-01  1.0885088063299D+00  9.0119214968811D-01
    53  5.2000000000000D-01  1.0315057380428D+00  9.5104829248357D-01
    54  5.3000000000000D-01  9.7266137776106D-01  1.0009597170157D+00
    55  5.4000000000000D-01  9.1214795505936D-01  1.0508185754865D+00
    56  5.5000000000000D-01  8.5014760114580D-01  1.1005019065743D+00
    57  5.6000000000000D-01  7.8685225605832D-01  1.1498705369235D+00
    58  5.7000000000000D-01  7.2246345544770D-01  1.1987682460716D+00
    59  5.8000000000000D-01  6.5719198765858D-01  1.2470212266935D+00
    60  5.9000000000000D-01  5.9125741353093D-01  1.2944378679564D+00
    61  6.0000000000000D-01  5.2488744327460D-01  1.3408088850524D+00
    62  6.1000000000000D-01  4.5831716685788D-01  1.3859078127747D+00
    63  6.2000000000000D-01  3.9178813660841D-01  1.4294918752851D+00
    64  6.3000000000000D-01  3.2554730308177D-01  1.4713032381744D+00
    65  6.4000000000000D-01  2.5984580770039D-01  1.5110706425630D+00
    66  6.5000000000000D-01  1.9493763816136D-01  1.5485114144287D+00
    67  6.6000000000000D-01  1.3107815509899D-01  1.5833338357487D+00
    68  6.7000000000000D-01  6.8522500956802D-02  1.6152398574087D+00
    69  6.8000000000000D-01  7.5239044091837D-03  1.6439281273524D+00
    70  6.9000000000000D-01 -5.1668104057134D-02  1.6690973011990D+00
    71  7.0000000000000D-01 -1.0880954767998D-01  1.6904495966570D+00
    72  7.1000000000000D-01 -1.6366391042689D-01  1.7076945475861D+00
    73  7.2000000000000D-01 -2.1600407413568D-01  1.7205529086635D+00
    74  7.3000000000000D-01 -2.6561426302978D-01  1.7287606573345D+00
    75  7.4000000000000D-01 -3.1229197172048D-01  1.7320730361881D+00
    76  7.5000000000000D-01 -3.5584985199955D-01  1.7302685761502D+00
    77  7.6000000000000D-01 -3.9611753326373D-01  1.7231530390145D+00
    78  7.7000000000000D-01 -4.3294335131271D-01  1.7105632168724D+00
    79  7.8000000000000D-01 -4.6619596053542D-01  1.6923705260008D+00
    80  7.9000000000000D-01 -4.9576580515341D-01  1.6684843337462D+00
    81  8.0000000000000D-01 -5.2156642622616D-01  1.6388549589087D+00
    82  8.1000000000000D-01 -5.4353558253464D-01  1.6034762890809D+00
    83  8.2000000000000D-01 -5.6163616523593D-01  1.5623879623032D+00
    84  8.3000000000000D-01 -5.7585688830613D-01  1.5156770652269D+00
    85  8.4000000000000D-01 -5.8621273923765D-01  1.4634793056732D+00
    86  8.5000000000000D-01 -5.9274517719938D-01  1.4059796239642D+00
    87  8.6000000000000D-01 -5.9552206887480D-01  1.3434122146108D+00
    88  8.7000000000000D-01 -5.9463735542388D-01  1.2760599377732D+00
    89  8.8000000000000D-01 -5.9021044741517D-01  1.2042531082258D+00
    90  8.9000000000000D-01 -5.8238534811965D-01  1.1283676582962D+00
    91  9.0000000000000D-01 -5.7132950917635D-01  1.0488226802270D+00
    92  9.1000000000000D-01 -5.5723242629047D-01  9.6607736252528D-01
    93  9.2000000000000D-01 -5.4030398625012D-01  8.8062734397127D-01
    94  9.3000000000000D-01 -5.2077258009406D-01  7.9300051791044D-01
    95  9.4000000000000D-01 -4.9888300067389D-01  7.0375232811796D-01
    96  9.5000000000000D-01 -4.7489414607764D-01  6.1346060575373D-01
    97  9.6000000000000D-01 -4.4907655336489D-01  5.2272000459047D-01
    98  9.7000000000000D-01 -4.2170978975718D-01  4.3213609866432D-01
    99  9.8000000000000D-01 -3.9307973078565D-01  3.4231921264607D-01
   100  9.9000000000000D-01 -3.6347575688779D-01  2.5387806047757D-01
   101  1.0000000000000D+00 -3.3318790149369D-01  1.6741327196365D-01
   102  1.0100000000000D+00 -3.0250398479168D-01  8.3510890165021D-02
   103  1.0200000000000D+00 -2.7170676801882D-01  2.7359243598375D-03
   104  1.0300000000000D+00 -2.4107116328395D-01 -7.4373955987737D-02
   105  1.0400000000000D+00 -2.1086153362571D-01 -1.4731450131702D-01
   106  1.0500000000000D+00 -1.8132911715440D-01 -2.1562065307500D-01
   107  1.0600000000000D+00 -1.5270960783279D-01 -2.7887192581124D-01
   108  1.0700000000000D+00 -1.2522092372437D-01 -3.3669732436078D-01
   109  1.0800000000000D+00 -9.9061191138685D-02 -3.8877972603333D-01
   110  1.0900000000000D+00 -7.4406970557925D-02 -4.3485966396034D-01
   111  1.1000000000000D+00 -5.1411746900961D-02 -4.7473845595549D-01
   112  1.1100000000000D+00 -3.0204703618192D-02 -5.0828063082666D-01
   113  1.1200000000000D+00 -1.0889796043451D-02 -5.3541561418506D-01
   114  1.1300000000000D+00  6.4548645514311D-03 -5.5613864573157D-01
   115  1.1400000000000D+00  2.1777309080312D-02 -5.7051091082240D-01
   116  1.1500000000000D+00  3.5051687873066D-02 -5.7865887925843D-01
   117  1.1600000000000D+00  4.6277928504079D-02 -5.8077285569447D-01
   118  1.1700000000000D+00  5.5481080516850D-02 -5.7710475815672D-01
   119  1.1800000000000D+00  6.2710357759765D-02 -5.6796515228340D-01
   120  1.1900000000000D+00  6.8037892343155D-02 -5.5371957720383D-01
   121  1.2000000000000D+00  7.1557219710000D-02 -5.3478421280202D-01
   122  1.2100000000000D+00  7.3381517669986D-02 -5.1162094659281D-01
   123  1.2200000000000D+00  7.3641625626915D-02 -4.8473190697181D-01
   124  1.2300000000000D+00  7.2483873200221D-02 -4.5465353710684D-01
   125  1.2400000000000D+00  7.0067751413422D-02 -4.2195029377285D-01
   126  1.2500000000000D+00  6.6563460955268D-02 -3.8720805878092D-01
   127  1.2600000000000D+00  6.2149373723840D-02 -3.5102735497549D-01
   128  1.2700000000000D+00  5.7009450353431D-02 -3.1401647670282D-01
   129  1.2800000000000D+00  5.1330647533771D-02 -2.7678461774104D-01
   130  1.2900000000000D+00  4.5300280432040D-02 -2.3993488506425D-01
   131  1.3000000000000D+00  3.9103581715135D-02 -2.0405787404720D-01
   132  1.3100000000000D+00  3.2921809143755D-02 -1.6972686263540D-01
   133  1.3200000000000D+00  2.6927177315606D-02 -1.3748357466555D-01
   134  1.3300000000000D+00  2.1277911980083D-02 -1.0782442177014D-01
   135  1.3400000000000D+00  1.6113044877964D-02 -8.1186137491777D-02
   136  1.3500000000000D+00  1.1550298682552D-02 -5.7940483452330D-02
   137  1.3600000000000D+00  7.6871342493483D-03 -3.8403030546854D-02
   138  1.3700000000000D+00  4.5861581998391D-03 -2.2765259861177D-02
   139  1.3800000000000D+00  2.2849903040860D-03 -1.1148931728888D-02
   140  1.3900000000000D+00  8.8682195755971D-04 -4.0203441085357D-03
   141  1.4000000000000D+00  2.7339272581538D-04 -8.7973340180978D-04
   142  1.4100000000000D+00  5.7982227817144D-05 -7.6675838833536D-06
   143  1.4200000000000D+00 -6.1995216543437D-07 -2.7206079578870D-06
   144  1.4300000000000D+00 -2.1117820555060D-06 -3.3911982512373D-05
   145  1.4400000000000D+00  1.0268479806923D-06  2.4865325339563D-06
   146  1.4500000000000D+00  7.7885100876650D-07  2.9578307418058D-06
   147  1.4600000000000D+00 -5.0723207580603D-07  1.3026455715627D-06
   148  1.4700000000000D+00 -1.2135641484312D-07  3.1166088249627D-07
   149  1.4800000000000D+00  0.0000000000000D+00  0.0000000000000D+00
   150  1.4900000000000D+00  0.0000000000000D+00  0.0000000000000D+00
   151  1.5000000000000D+00  0.0000000000000D+00  0.0000000000000D+00
   152  1.5100000000000D+00  0.0000000000000D+00  0.0000000000000D+00
   153  1.5200000000000D+00  0.0000000000000D+00  0.0000000000000D+00
   154  1.5300000000000D+00  0.0000000000000D+00  0.0000000000000D+00
   155  1.5400000000000D+00  0.0000000000000D+00  0.0000000000000D+00
   156  1.5500000000000D+00  0.0000000000000D+00  0.0000000000000D+00
   157  1.5600000000000D+00  0.0000000000000D+00  0.0000000000000D+00
   158  1.5700000000000D+00  0.0000000000000D+00  0.0000000000000D+00
   159  1.5800000000000D+00  0.0000000000000D+00  0.0000000000000D+00
   160  1.5900000000000D+00  0.0000000000000D+00  0.0000000000000D+00
   161  1.6000000000000D+00  0.0000000000000D+00  0.0000000000000D+00
   162  1.6100000000000D+00  0.0000000000000D+00  0.0000000000000D+00
   163  1.6200000000000D+00  0.0000000000000D+00  0.0000000000000D+00
   164  1.6300000000000D+00  0.0000000000000D+00  0.0000000000000D+00
   165  1.6400000000000D+00  0.0000000000000D+00  0.0000000000000D+00
   166  1.6500000000000D+00  0.0000000000000D+00  0.0000000000000D+00
   167  1.6600000000000D+00  0.0000000000000D+00  0.0000000000000D+00
   168  1.6700000000000D+00  0.0000000000000D+00  0.0000000000000D+00
   169  1.6800000000000D+00  0.0000000000000D+00  0.0000000000000D+00
   170  1.6900000000000D+00  0.0000000000000D+00  0.0000000000000D+00
   171  1.7000000000000D+00  0.0000000000000D+00  0.0000000000000D+00
   172  1.7100000000000D+00  0.0000000000000D+00  0.0000000000000D+00
   173  1.7200000000000D+00  0.0000000000000D+00  0.0000000000000D+00
   174  1.7300000000000D+00  0.0000000000000D+00  0.0000000000000D+00
   175  1.7400000000000D+00  0.0000000000000D+00  0.0000000000000D+00
   176  1.7500000000000D+00  0.0000000000000D+00  0.0000000000000D+00
   177  1.7600000000000D+00  0.0000000000000D+00  0.0000000000000D+00
   178  1.7700000000000D+00  0.0000000000000D+00  0.0000000000000D+00
   179  1.7800000000000D+00  0.0000000000000D+00  0.0000000000000D+00
   180  1.7900000000000D+00  0.0000000000000D+00  0.0000000000000D+00
   181  1.8000000000000D+00  0.0000000000000D+00  0.0000000000000D+00
   182  1.8100000000000D+00  0.0000000000000D+00  0.0000000000000D+00
   183  1.8200000000000D+00  0.0000000000000D+00  0.0000000000000D+00
   184  1.8300000000000D+00  0.0000000000000D+00  0.0000000000000D+00
   185  1.8400000000000D+00  0.0000000000000D+00  0.0000000000000D+00
   186  1.8500000000000D+00  0.0000000000000D+00  0.0000000000000D+00
   187  1.8600000000000D+00  0.0000000000000D+00  0.0000000000000D+00
   188  1.8700000000000D+00  0.0000000000000D+00  0.0000000000000D+00
   189  1.8800000000000D+00  0.0000000000000D+00  0.0000000000000D+00
   190  1.8900000000000D+00  0.0000000000000D+00  0.0000000000000D+00
   191  1.9000000000000D+00  0.0000000000000D+00  0.0000000000000D+00
   192  1.9100000000000D+00  0.0000000000000D+00  0.0000000000000D+00
   193  1.9200000000000D+00  0.0000000000000D+00  0.0000000000000D+00
   194  1.9300000000000D+00  0.0000000000000D+00  0.0000000000000D+00
   195  1.9400000000000D+00  0.0000000000000D+00  0.0000000000000D+00
   196  1.9500000000000D+00  0.0000000000000D+00  0.0000000000000D+00
   197  1.9600000000000D+00  0.0000000000000D+00  0.0000000000000D+00
   198  1.9700000000000D+00  0.0000000000000D+00  0.0000000000000D+00
   199  1.9800000000000D+00  0.0000000000000D+00  0.0000000000000D+00
   200  1.9900000000000D+00  0.0000000000000D+00  0.0000000000000D+00
   201  2.0000000000000D+00  0.0000000000000D+00  0.0000000000000D+00
   202  2.0100000000000D+00  0.0000000000000D+00  0.0000000000000D+00
   203  2.0200000000000D+00  0.0000000000000D+00  0.0000000000000D+00
   204  2.0300000000000D+00  0.0000000000000D+00  0.0000000000000D+00
   205  2.0400000000000D+00  0.0000000000000D+00  0.0000000000000D+00
   206  2.0500000000000D+00  0.0000000000000D+00  0.0000000000000D+00
   207  2.0600000000000D+00  0.0000000000000D+00  0.0000000000000D+00
   208  2.0700000000000D+00  0.0000000000000D+00  0.0000000000000D+00
   209  2.0800000000000D+00  0.0000000000000D+00  0.0000000000000D+00
   210  2.0900000000000D+00  0.0000000000000D+00  0.0000000000000D+00
   211  2.1000000000000D+00  0.0000000000000D+00  0.0000000000000D+00
   212  2.1100000000000D+00  0.0000000000000D+00  0.0000000000000D+00
   213  2.1200000000000D+00  0.0000000000000D+00  0.0000000000000D+00
   214  2.1300000000000D+00  0.0000000000000D+00  0.0000000000000D+00
   215  2.1400000000000D+00  0.0000000000000D+00  0.0000000000000D+00
   216  2.1500000000000D+00  0.0000000000000D+00  0.0000000000000D+00
   217  2.1600000000000D+00  0.0000000000000D+00  0.0000000000000D+00
   218  2.1700000000000D+00  0.0000000000000D+00  0.0000000000000D+00
   219  2.1800000000000D+00  0.0000000000000D+00  0.0000000000000D+00
   220  2.1900000000000D+00  0.0000000000000D+00  0.0000000000000D+00
   221  2.2000000000000D+00  0.0000000000000D+00  0.0000000000000D+00
   222  2.2100000000000D+00  0.0000000000000D+00  0.0000000000000D+00
   223  2.2200000000000D+00  0.0000000000000D+00  0.0000000000000D+00
   224  2.2300000000000D+00  0.0000000000000D+00  0.0000000000000D+00
   225  2.2400000000000D+00  0.0000000000000D+00  0.0000000000000D+00
   226  2.2500000000000D+00  0.0000000000000D+00  0.0000000000000D+00
   227  2.2600000000000D+00  0.0000000000000D+00  0.0000000000000D+00
   228  2.2700000000000D+00  0.0000000000000D+00  0.0000000000000D+00
   229  2.2800000000000D+00  0.0000000000000D+00  0.0000000000000D+00
   230  2.2900000000000D+00  0.0000000000000D+00  0.0000000000000D+00
   231  2.3000000000000D+00  0.0000000000000D+00  0.0000000000000D+00
   232  2.3100000000000D+00  0.0000000000000D+00  0.0000000000000D+00
   233  2.3200000000000D+00  0.0000000000000D+00  0.0000000000000D+00
   234  2.3300000000000D+00  0.0000000000000D+00  0.0000000000000D+00
   235  2.3400000000000D+00  0.0000000000000D+00  0.0000000000000D+00
   236  2.3500000000000D+00  0.0000000000000D+00  0.0000000000000D+00
   237  2.3600000000000D+00  0.0000000000000D+00  0.0000000000000D+00
   238  2.3700000000000D+00  0.0000000000000D+00  0.0000000000000D+00
   239  2.3800000000000D+00  0.0000000000000D+00  0.0000000000000D+00
   240  2.3900000000000D+00  0.0000000000000D+00  0.0000000000000D+00
   241  2.4000000000000D+00  0.0000000000000D+00  0.0000000000000D+00
   242  2.4100000000000D+00  0.0000000000000D+00  0.0000000000000D+00
   243  2.4200000000000D+00  0.0000000000000D+00  0.0000000000000D+00
   244  2.4300000000000D+00  0.0000000000000D+00  0.0000000000000D+00
   245  2.4400000000000D+00  0.0000000000000D+00  0.0000000000000D+00
   246  2.4500000000000D+00  0.0000000000000D+00  0.0000000000000D+00
   247  2.4600000000000D+00  0.0000000000000D+00  0.0000000000000D+00
   248  2.4700000000000D+00  0.0000000000000D+00  0.0000000000000D+00
   249  2.4800000000000D+00  0.0000000000000D+00  0.0000000000000D+00
   250  2.4900000000000D+00  0.0000000000000D+00  0.0000000000000D+00
   251  2.5000000000000D+00  0.0000000000000D+00  0.0000000000000D+00
   252  2.5100000000000D+00  0.0000000000000D+00  0.0000000000000D+00
   253  2.5200000000000D+00  0.0000000000000D+00  0.0000000000000D+00
   254  2.5300000000000D+00  0.0000000000000D+00  0.0000000000000D+00
   255  2.5400000000000D+00  0.0000000000000D+00  0.0000000000000D+00
   256  2.5500000000000D+00  0.0000000000000D+00  0.0000000000000D+00
   257  2.5600000000000D+00  0.0000000000000D+00  0.0000000000000D+00
   258  2.5700000000000D+00  0.0000000000000D+00  0.0000000000000D+00
   259  2.5800000000000D+00  0.0000000000000D+00  0.0000000000000D+00
   260  2.5900000000000D+00  0.0000000000000D+00  0.0000000000000D+00
   261  2.6000000000000D+00  0.0000000000000D+00  0.0000000000000D+00
   262  2.6100000000000D+00  0.0000000000000D+00  0.0000000000000D+00
   263  2.6200000000000D+00  0.0000000000000D+00  0.0000000000000D+00
   264  2.6300000000000D+00  0.0000000000000D+00  0.0000000000000D+00
   265  2.6400000000000D+00  0.0000000000000D+00  0.0000000000000D+00
   266  2.6500000000000D+00  0.0000000000000D+00  0.0000000000000D+00
   267  2.6600000000000D+00  0.0000000000000D+00  0.0000000000000D+00
   268  2.6700000000000D+00  0.0000000000000D+00  0.0000000000000D+00
   269  2.6800000000000D+00  0.0000000000000D+00  0.0000000000000D+00
   270  2.6900000000000D+00  0.0000000000000D+00  0.0000000000000D+00
   271  2.7000000000000D+00  0.0000000000000D+00  0.0000000000000D+00
   272  2.7100000000000D+00  0.0000000000000D+00  0.0000000000000D+00
   273  2.7200000000000D+00  0.0000000000000D+00  0.0000000000000D+00
   274  2.7300000000000D+00  0.0000000000000D+00  0.0000000000000D+00
   275  2.7400000000000D+00  0.0000000000000D+00  0.0000000000000D+00
   276  2.7500000000000D+00  0.0000000000000D+00  0.0000000000000D+00
   277  2.7600000000000D+00  0.0000000000000D+00  0.0000000000000D+00
   278  2.7700000000000D+00  0.0000000000000D+00  0.0000000000000D+00
   279  2.7800000000000D+00  0.0000000000000D+00  0.0000000000000D+00
   280  2.7900000000000D+00  0.0000000000000D+00  0.0000000000000D+00
   281  2.8000000000000D+00  0.0000000000000D+00  0.0000000000000D+00
   282  2.8100000000000D+00  0.0000000000000D+00  0.0000000000000D+00
   283  2.8200000000000D+00  0.0000000000000D+00  0.0000000000000D+00
   284  2.8300000000000D+00  0.0000000000000D+00  0.0000000000000D+00
   285  2.8400000000000D+00  0.0000000000000D+00  0.0000000000000D+00
   286  2.8500000000000D+00  0.0000000000000D+00  0.0000000000000D+00
   287  2.8600000000000D+00  0.0000000000000D+00  0.0000000000000D+00
   288  2.8700000000000D+00  0.0000000000000D+00  0.0000000000000D+00
   289  2.8800000000000D+00  0.0000000000000D+00  0.0000000000000D+00
   290  2.8900000000000D+00  0.0000000000000D+00  0.0000000000000D+00
   291  2.9000000000000D+00  0.0000000000000D+00  0.0000000000000D+00
   292  2.9100000000000D+00  0.0000000000000D+00  0.0000000000000D+00
   293  2.9200000000000D+00  0.0000000000000D+00  0.0000000000000D+00
   294  2.9300000000000D+00  0.0000000000000D+00  0.0000000000000D+00
   295  2.9400000000000D+00  0.0000000000000D+00  0.0000000000000D+00
   296  2.9500000000000D+00  0.0000000000000D+00  0.0000000000000D+00
   297  2.9600000000000D+00  0.0000000000000D+00  0.0000000000000D+00
   298  2.9700000000000D+00  0.0000000000000D+00  0.0000000000000D+00
   299  2.9800000000000D+00  0.0000000000000D+00  0.0000000000000D+00
   300  2.9900000000000D+00  0.0000000000000D+00  0.0000000000000D+00
   301  3.0000000000000D+00  0.0000000000000D+00  0.0000000000000D+00
   302  3.0100000000000D+00  0.0000000000000D+00  0.0000000000000D+00
   303  3.0200000000000D+00  0.0000000000000D+00  0.0000000000000D+00
   304  3.0300000000000D+00  0.0000000000000D+00  0.0000000000000D+00
   305  3.0400000000000D+00  0.0000000000000D+00  0.0000000000000D+00
   306  3.0500000000000D+00  0.0000000000000D+00  0.0000000000000D+00
   307  3.0600000000000D+00  0.0000000000000D+00  0.0000000000000D+00
   308  3.0700000000000D+00  0.0000000000000D+00  0.0000000000000D+00
   309  3.0800000000000D+00  0.0000000000000D+00  0.0000000000000D+00
   310  3.0900000000000D+00  0.0000000000000D+00  0.0000000000000D+00
   311  3.1000000000000D+00  0.0000000000000D+00  0.0000000000000D+00
   312  3.1100000000000D+00  0.0000000000000D+00  0.0000000000000D+00
   313  3.1200000000000D+00  0.0000000000000D+00  0.0000000000000D+00
   314  3.1300000000000D+00  0.0000000000000D+00  0.0000000000000D+00
   315  3.1400000000000D+00  0.0000000000000D+00  0.0000000000000D+00
   316  3.1500000000000D+00  0.0000000000000D+00  0.0000000000000D+00
   317  3.1600000000000D+00  0.0000000000000D+00  0.0000000000000D+00
   318  3.1700000000000D+00  0.0000000000000D+00  0.0000000000000D+00
   319  3.1800000000000D+00  0.0000000000000D+00  0.0000000000000D+00
   320  3.1900000000000D+00  0.0000000000000D+00  0.0000000000000D+00
   321  3.2000000000000D+00  0.0000000000000D+00  0.0000000000000D+00
   322  3.2100000000000D+00  0.0000000000000D+00  0.0000000000000D+00
   323  3.2200000000000D+00  0.0000000000000D+00  0.0000000000000D+00
   324  3.2300000000000D+00  0.0000000000000D+00  0.0000000000000D+00
   325  3.2400000000000D+00  0.0000000000000D+00  0.0000000000000D+00
   326  3.2500000000000D+00  0.0000000000000D+00  0.0000000000000D+00
   327  3.2600000000000D+00  0.0000000000000D+00  0.0000000000000D+00
   328  3.2700000000000D+00  0.0000000000000D+00  0.0000000000000D+00
   329  3.2800000000000D+00  0.0000000000000D+00  0.0000000000000D+00
   330  3.2900000000000D+00  0.0000000000000D+00  0.0000000000000D+00
   331  3.3000000000000D+00  0.0000000000000D+00  0.0000000000000D+00
   332  3.3100000000000D+00  0.0000000000000D+00  0.0000000000000D+00
   333  3.3200000000000D+00  0.0000000000000D+00  0.0000000000000D+00
   334  3.3300000000000D+00  0.0000000000000D+00  0.0000000000000D+00
   335  3.3400000000000D+00  0.0000000000000D+00  0.0000000000000D+00
   336  3.3500000000000D+00  0.0000000000000D+00  0.0000000000000D+00
   337  3.3600000000000D+00  0.0000000000000D+00  0.0000000000000D+00
   338  3.3700000000000D+00  0.0000000000000D+00  0.0000000000000D+00
   339  3.3800000000000D+00  0.0000000000000D+00  0.0000000000000D+00
   340  3.3900000000000D+00  0.0000000000000D+00  0.0000000000000D+00
   341  3.4000000000000D+00  0.0000000000000D+00  0.0000000000000D+00
   342  3.4100000000000D+00  0.0000000000000D+00  0.0000000000000D+00
   343  3.4200000000000D+00  0.0000000000000D+00  0.0000000000000D+00
   344  3.4300000000000D+00  0.0000000000000D+00  0.0000000000000D+00
   345  3.4400000000000D+00  0.0000000000000D+00  0.0000000000000D+00
   346  3.4500000000000D+00  0.0000000000000D+00  0.0000000000000D+00
   347  3.4600000000000D+00  0.0000000000000D+00  0.0000000000000D+00
   348  3.4700000000000D+00  0.0000000000000D+00  0.0000000000000D+00
   349  3.4800000000000D+00  0.0000000000000D+00  0.0000000000000D+00
   350  3.4900000000000D+00  0.0000000000000D+00  0.0000000000000D+00
   351  3.5000000000000D+00  0.0000000000000D+00  0.0000000000000D+00
   352  3.5100000000000D+00  0.0000000000000D+00  0.0000000000000D+00
   353  3.5200000000000D+00  0.0000000000000D+00  0.0000000000000D+00
   354  3.5300000000000D+00  0.0000000000000D+00  0.0000000000000D+00
   355  3.5400000000000D+00  0.0000000000000D+00  0.0000000000000D+00
   356  3.5500000000000D+00  0.0000000000000D+00  0.0000000000000D+00
   357  3.5600000000000D+00  0.0000000000000D+00  0.0000000000000D+00
   358  3.5700000000000D+00  0.0000000000000D+00  0.0000000000000D+00
   359  3.5800000000000D+00  0.0000000000000D+00  0.0000000000000D+00
   360  3.5900000000000D+00  0.0000000000000D+00  0.0000000000000D+00
   361  3.6000000000000D+00  0.0000000000000D+00  0.0000000000000D+00
   362  3.6100000000000D+00  0.0000000000000D+00  0.0000000000000D+00
   363  3.6200000000000D+00  0.0000000000000D+00  0.0000000000000D+00
   364  3.6300000000000D+00  0.0000000000000D+00  0.0000000000000D+00
   365  3.6400000000000D+00  0.0000000000000D+00  0.0000000000000D+00
   366  3.6500000000000D+00  0.0000000000000D+00  0.0000000000000D+00
   367  3.6600000000000D+00  0.0000000000000D+00  0.0000000000000D+00
   368  3.6700000000000D+00  0.0000000000000D+00  0.0000000000000D+00
   369  3.6800000000000D+00  0.0000000000000D+00  0.0000000000000D+00
   370  3.6900000000000D+00  0.0000000000000D+00  0.0000000000000D+00
   371  3.7000000000000D+00  0.0000000000000D+00  0.0000000000000D+00
   372  3.7100000000000D+00  0.0000000000000D+00  0.0000000000000D+00
   373  3.7200000000000D+00  0.0000000000000D+00  0.0000000000000D+00
   374  3.7300000000000D+00  0.0000000000000D+00  0.0000000000000D+00
   375  3.7400000000000D+00  0.0000000000000D+00  0.0000000000000D+00
   376  3.7500000000000D+00  0.0000000000000D+00  0.0000000000000D+00
   377  3.7600000000000D+00  0.0000000000000D+00  0.0000000000000D+00
   378  3.7700000000000D+00  0.0000000000000D+00  0.0000000000000D+00
   379  3.7800000000000D+00  0.0000000000000D+00  0.0000000000000D+00
   380  3.7900000000000D+00  0.0000000000000D+00  0.0000000000000D+00
   381  3.8000000000000D+00  0.0000000000000D+00  0.0000000000000D+00
   382  3.8100000000000D+00  0.0000000000000D+00  0.0000000000000D+00
   383  3.8200000000000D+00  0.0000000000000D+00  0.0000000000000D+00
   384  3.8300000000000D+00  0.0000000000000D+00  0.0000000000000D+00
   385  3.8400000000000D+00  0.0000000000000D+00  0.0000000000000D+00
   386  3.8500000000000D+00  0.0000000000000D+00  0.0000000000000D+00
   387  3.8600000000000D+00  0.0000000000000D+00  0.0000000000000D+00
   388  3.8700000000000D+00  0.0000000000000D+00  0.0000000000000D+00
   389  3.8800000000000D+00  0.0000000000000D+00  0.0000000000000D+00
   390  3.8900000000000D+00  0.0000000000000D+00  0.0000000000000D+00
   391  3.9000000000000D+00  0.0000000000000D+00  0.0000000000000D+00
   392  3.9100000000000D+00  0.0000000000000D+00  0.0000000000000D+00
   393  3.9200000000000D+00  0.0000000000000D+00  0.0000000000000D+00
   394  3.9300000000000D+00  0.0000000000000D+00  0.0000000000000D+00
   395  3.9400000000000D+00  0.0000000000000D+00  0.0000000000000D+00
   396  3.9500000000000D+00  0.0000000000000D+00  0.0000000000000D+00
   397  3.9600000000000D+00  0.0000000000000D+00  0.0000000000000D+00
   398  3.9700000000000D+00  0.0000000000000D+00  0.0000000000000D+00
   399  3.9800000000000D+00  0.0000000000000D+00  0.0000000000000D+00
   400  3.9900000000000D+00  0.0000000000000D+00  0.0000000000000D+00
   401  4.0000000000000D+00  0.0000000000000D+00  0.0000000000000D+00
   402  4.0100000000000D+00  0.0000000000000D+00  0.0000000000000D+00
   403  4.0200000000000D+00  0.0000000000000D+00  0.0000000000000D+00
   404  4.0300000000000D+00  0.0000000000000D+00  0.0000000000000D+00
   405  4.0400000000000D+00  0.0000000000000D+00  0.0000000000000D+00
   406  4.0500000000000D+00  0.0000000000000D+00  0.0000000000000D+00
   407  4.0600000000000D+00  0.0000000000000D+00  0.0000000000000D+00
   408  4.0700000000000D+00  0.0000000000000D+00  0.0000000000000D+00
   409  4.0800000000000D+00  0.0000000000000D+00  0.0000000000000D+00
   410  4.0900000000000D+00  0.0000000000000D+00  0.0000000000000D+00
   411  4.1000000000000D+00  0.0000000000000D+00  0.0000000000000D+00
   412  4.1100000000000D+00  0.0000000000000D+00  0.0000000000000D+00
   413  4.1200000000000D+00  0.0000000000000D+00  0.0000000000000D+00
   414  4.1300000000000D+00  0.0000000000000D+00  0.0000000000000D+00
   415  4.1400000000000D+00  0.0000000000000D+00  0.0000000000000D+00
   416  4.1500000000000D+00  0.0000000000000D+00  0.0000000000000D+00
   417  4.1600000000000D+00  0.0000000000000D+00  0.0000000000000D+00
   418  4.1700000000000D+00  0.0000000000000D+00  0.0000000000000D+00
   419  4.1800000000000D+00  0.0000000000000D+00  0.0000000000000D+00
   420  4.1900000000000D+00  0.0000000000000D+00  0.0000000000000D+00
   421  4.2000000000000D+00  0.0000000000000D+00  0.0000000000000D+00
   422  4.2100000000000D+00  0.0000000000000D+00  0.0000000000000D+00