As    ONCVPSP-3.3.0  r_core=   1.76603   1.70395   1.80867
     33.0000     15.0000      220117    zatom,zion,pspd
     8      11   2     4   600     0    pspcod,pspxc,lmax,lloc,mmax,r2well
  5.99000000  0.00000000  0.00000000    rchrg fchrg qchrg
     2     2     2     0     0    nproj
     1     1           extension_switch
   0                         8.3051104195767D+00  8.7481408902779D-01
     1  0.0000000000000D+00  4.7903347955014D-12 -6.0875748886247D-11
     2  1.0000000000000D-02  3.6526386462010D-02 -1.8101689955761D-02
     3  2.0000000000000D-02  7.3034844843230D-02 -3.6194049795495D-02
     4  3.0000000000000D-02  1.0950738903906D-01 -5.4267533472158D-02
     5  4.0000000000000D-02  1.4592591729046D-01 -7.2312165091119D-02
     6  5.0000000000000D-02  1.8227215533847D-01 -9.0317329006932D-02
     7  6.0000000000000D-02  2.1852760075348D-01 -1.0827156590142D-01
     8  7.0000000000000D-02  2.5467346882526D-01 -1.2616237676490D-01
     9  8.0000000000000D-02  2.9069064039490D-01 -1.4397603664148D-01
    10  9.0000000000000D-02  3.2655961200385D-01 -1.6169741992395D-01
    11  1.0000000000000D-01  3.6226044872788D-01 -1.7930983889491D-01
    12  1.1000000000000D-01  3.9777274005509D-01 -1.9679489710848D-01
    13  1.2000000000000D-01  4.3307555915755D-01 -2.1413235909254D-01
    14  1.3000000000000D-01  4.6814742589451D-01 -2.3130003772558D-01
    15  1.4000000000000D-01  5.0296627387282D-01 -2.4827370050593D-01
    16  1.5000000000000D-01  5.3750942187614D-01 -2.6502699578553D-01
    17  1.6000000000000D-01  5.7175354995924D-01 -2.8153139988600D-01
    18  1.7000000000000D-01  6.0567468048668D-01 -2.9775618585441D-01
    19  1.8000000000000D-01  6.3924816437723D-01 -3.1366841444817D-01
    20  1.9000000000000D-01  6.7244867279532D-01 -3.2923294776786D-01
    21  2.0000000000000D-01  7.0525019451007D-01 -3.4441248578137D-01
    22  2.1000000000000D-01  7.3762603911931D-01 -3.5916762580601D-01
    23  2.2000000000000D-01  7.6954884631241D-01 -3.7345694483800D-01
    24  2.3000000000000D-01  8.0099060131972D-01 -3.8723710444210D-01
    25  2.4000000000000D-01  8.3192265666994D-01 -4.0046297773923D-01
    26  2.5000000000000D-01  8.6231576034803D-01 -4.1308779785939D-01
    27  2.6000000000000D-01  8.9214009041684D-01 -4.2506332705995D-01
    28  2.7000000000000D-01  9.2136529613467D-01 -4.3634004554963D-01
    29  2.8000000000000D-01  9.4996054556894D-01 -4.4686735890470D-01
    30  2.9000000000000D-01  9.7789457967297D-01 -4.5659382281884D-01
    31  3.0000000000000D-01  1.0051357727587D+00 -4.6546738379287D-01
    32  3.1000000000000D-01  1.0316521992633D+00 -4.7343563424464D-01
    33  3.2000000000000D-01  1.0574117066715D+00 -4.8044608040601D-01
    34  3.3000000000000D-01  1.0823819944199D+00 -4.8644642127131D-01
    35  3.4000000000000D-01  1.1065306985724D+00 -4.9138483677355D-01
    36  3.5000000000000D-01  1.1298254820186D+00 -4.9521028328792D-01
    37  3.6000000000000D-01  1.1522341299106D+00 -4.9787279450181D-01
    38  3.7000000000000D-01  1.1737246500171D+00 -4.9932378564261D-01
    39  3.8000000000000D-01  1.1942653776363D+00 -4.9951635902244D-01
    40  3.9000000000000D-01  1.2138250846740D+00 -4.9840560884168D-01
    41  4.0000000000000D-01  1.2323730924590D+00 -4.9594892319007D-01
    42  4.1000000000000D-01  1.2498793878319D+00 -4.9210628119720D-01
    43  4.2000000000000D-01  1.2663147420132D+00 -4.8684054331077D-01
    44  4.3000000000000D-01  1.2816508317247D+00 -4.8011773272278D-01
    45  4.4000000000000D-01  1.2958603620090D+00 -4.7190730601979D-01
    46  4.5000000000000D-01  1.3089171901644D+00 -4.6218241120185D-01
    47  4.6000000000000D-01  1.3207964501895D+00 -4.5092013129800D-01
    48  4.7000000000000D-01  1.3314746771081D+00 -4.3810171189963D-01
    49  4.8000000000000D-01  1.3409299305264D+00 -4.2371277104002D-01
    50  4.9000000000000D-01  1.3491419167589D+00 -4.0774348996411D-01
    51  5.0000000000000D-01  1.3560921088457D+00 -3.9018878345975D-01
    52  5.1000000000000D-01  1.3617638637746D+00 -3.7104844855586D-01
    53  5.2000000000000D-01  1.3661425362169D+00 -3.5032729053596D-01
    54  5.3000000000000D-01  1.3692155880828D+00 -3.2803522536459D-01
    55  5.4000000000000D-01  1.3709726932052D+00 -3.0418735777797D-01
    56  5.5000000000000D-01  1.3714058364666D+00 -2.7880403444933D-01
    57  5.6000000000000D-01  1.3705094066950D+00 -2.5191087180018D-01
    58  5.7000000000000D-01  1.3682802826704D+00 -2.2353875819137D-01
    59  5.8000000000000D-01  1.3647179116004D+00 -1.9372383039219D-01
    60  5.9000000000000D-01  1.3598243794504D+00 -1.6250742438718D-01
    61  6.0000000000000D-01  1.3536044725403D+00 -1.2993600074116D-01
    62  6.1000000000000D-01  1.3460657298519D+00 -9.6061044900520D-02
    63  6.2000000000000D-01  1.3372184855298D+00 -6.0938942961505D-02
    64  6.3000000000000D-01  1.3270759010982D+00 -2.4630833583765D-02
    65  6.4000000000000D-01  1.3156539869616D+00  1.2797563131381D-02
    66  6.5000000000000D-01  1.3029716128062D+00  5.1276138844855D-02
    67  6.6000000000000D-01  1.2890505065723D+00  9.0730611187491D-02
    68  6.7000000000000D-01  1.2739152417230D+00  1.3108275777679D-01
    69  6.8000000000000D-01  1.2575932125938D+00  1.7225066874148D-01
    70  6.9000000000000D-01  1.2401145976707D+00  2.1414901635755D-01
    71  7.0000000000000D-01  1.2215123107078D+00  2.5668934031309D-01
    72  7.1000000000000D-01  1.2018219396625D+00  2.9978034704763D-01
    73  7.2000000000000D-01  1.1810816734945D+00  3.4332822154888D-01
    74  7.3000000000000D-01  1.1593322169458D+00  3.8723694994093D-01
    75  7.4000000000000D-01  1.1366166934864D+00  4.3140865116071D-01
    76  7.5000000000000D-01  1.1129805366854D+00  4.7574391599427D-01
    77  7.6000000000000D-01  1.0884713703342D+00  5.2014215173224D-01
    78  7.7000000000000D-01  1.0631388777228D+00  5.6450193070247D-01
    79  7.8000000000000D-01  1.0370346605347D+00  6.0872134094907D-01
    80  7.9000000000000D-01  1.0102120879001D+00  6.5269833734975D-01
    81  8.0000000000000D-01  9.8272613620640D-01  6.9633109149644D-01
    82  8.1000000000000D-01  9.5463322033248D-01  7.3951833870794D-01
    83  8.2000000000000D-01  9.2599101703351D-01  7.8215972059685D-01
    84  8.3000000000000D-01  8.9685828125714D-01  8.2415612167619D-01
    85  8.4000000000000D-01  8.6729465622783D-01  8.6540999856141D-01
    86  8.5000000000000D-01  8.3736047818312D-01  9.0582570040248D-01
    87  8.6000000000000D-01  8.0711657668958D-01  9.4530977926675D-01
    88  8.7000000000000D-01  7.7662407150561D-01  9.8377128928253D-01
    89  8.8000000000000D-01  7.4594416699014D-01  1.0211220734515D+00
    90  8.9000000000000D-01  7.1513794508457D-01  1.0572770371365D+00
    91  9.0000000000000D-01  6.8426615791580D-01  1.0921544073349D+00
    92  9.1000000000000D-01  6.5338902108313D-01  1.1256759769519D+00
    93  9.2000000000000D-01  6.2256600869972D-01  1.1577673333957D+00
    94  9.3000000000000D-01  5.9185565126085D-01  1.1883580709201D+00
    95  9.4000000000000D-01  5.6131533740554D-01  1.2173819862478D+00
    96  9.5000000000000D-01  5.3100112062584D-01  1.2447772571100D+00
    97  9.6000000000000D-01  5.0096753195846D-01  1.2704866034382D+00
    98  9.7000000000000D-01  4.7126739966700D-01  1.2944574310453D+00
    99  9.8000000000000D-01  4.4195167689107D-01  1.3166419577204D+00
   100  9.9000000000000D-01  4.1306927819739D-01  1.3369973217578D+00
   101  1.0000000000000D+00  3.8466692592280D-01  1.3554856730192D+00
   102  1.0100000000000D+00  3.5678900714672D-01  1.3720742467070D+00
   103  1.0200000000000D+00  3.2947744207219D-01  1.3867354200989D+00
   104  1.0300000000000D+00  3.0277156453139D-01  1.3994467525568D+00
   105  1.0400000000000D+00  2.7670801526033D-01  1.4101910091818D+00
   106  1.0500000000000D+00  2.5132064852035D-01  1.4189561685355D+00
   107  1.0600000000000D+00  2.2664045255792D-01  1.4257354148917D+00
   108  1.0700000000000D+00  2.0269548431907D-01  1.4305271155182D+00
   109  1.0800000000000D+00  1.7951081874890D-01  1.4333347835143D+00
   110  1.0900000000000D+00  1.5710851291408D-01  1.4341670267519D+00
   111  1.1000000000000D+00  1.3550758511296D-01  1.4330374834798D+00
   112  1.1100000000000D+00  1.1472400902757D-01  1.4299647451579D+00
   113  1.1200000000000D+00  9.4770722896580D-02  1.4249722670905D+00
   114  1.1300000000000D+00  7.5657653585769D-02  1.4180882674152D+00
   115  1.1400000000000D+00  5.7391755358397D-02  1.4093456149992D+00
   116  1.1500000000000D+00  3.9977063043634D-02  1.3987817067758D+00
   117  1.1600000000000D+00  2.3414759222486D-02  1.3864383350307D+00
   118  1.1700000000000D+00  7.7032549584412D-03  1.3723615451203D+00
   119  1.1800000000000D+00 -7.1617164574900D-03  1.3566014840877D+00
   120  1.1900000000000D+00 -2.1186993384266D-02  1.3392122405963D+00
   121  1.2000000000000D+00 -3.4381868023700D-02  1.3202516765755D+00
   122  1.2100000000000D+00 -4.6757957689478D-02  1.2997812509384D+00
   123  1.2200000000000D+00 -5.8329065969088D-02  1.2778658357022D+00
   124  1.2300000000000D+00 -6.9111034669149D-02  1.2545735247961D+00
   125  1.2400000000000D+00 -7.9121587471317D-02  1.2299754358131D+00
   126  1.2500000000000D+00 -8.8380166254409D-02  1.2041455049461D+00
   127  1.2600000000000D+00 -9.6907761106761D-02  1.1771602752926D+00
   128  1.2700000000000D+00 -1.0472673505384D-01  1.1490986787016D+00
   129  1.2800000000000D+00 -1.1186064454924D-01  1.1200418113206D+00
   130  1.2900000000000D+00 -1.1833405680680D-01  1.0900727029617D+00
   131  1.3000000000000D+00 -1.2417236503075D-01  1.0592760804063D+00
   132  1.3100000000000D+00 -1.2940160262223D-01  1.0277381247561D+00
   133  1.3200000000000D+00 -1.3404825741720D-01  9.9554622292174D-01
   134  1.3300000000000D+00 -1.3813908697501D-01  9.6278871336399D-01
   135  1.3400000000000D+00 -1.4170093596692D-01  9.2955462617517D-01
   136  1.3500000000000D+00 -1.4476055660687D-01  8.9593341763242D-01
   137  1.3600000000000D+00 -1.4734443307093D-01  8.6201469935829D-01
   138  1.3700000000000D+00 -1.4947861083568D-01  8.2788796222025D-01
   139  1.3800000000000D+00 -1.5118853169902D-01  7.9364229519765D-01
   140  1.3900000000000D+00 -1.5249887534822D-01  7.5936609938606D-01
   141  1.4000000000000D+00 -1.5343340815287D-01  7.2514679741291D-01
   142  1.4100000000000D+00 -1.5401483979140D-01  6.9107053859369D-01
   143  1.4200000000000D+00 -1.5426468841944D-01  6.5722190008234D-01
   144  1.4300000000000D+00 -1.5420315470993D-01  6.2368358452639D-01
   145  1.4400000000000D+00 -1.5384900534960D-01  5.9053611456557D-01
   146  1.4500000000000D+00 -1.5321946625889D-01  5.5785752472666D-01
   147  1.4600000000000D+00 -1.5233012576694D-01  5.2572305130208D-01
   148  1.4700000000000D+00 -1.5119484808791D-01  4.9420482070877D-01
   149  1.4800000000000D+00 -1.4982569694623D-01  4.6337153719286D-01
   150  1.4900000000000D+00 -1.4823286967787D-01  4.3328817039120D-01
   151  1.5000000000000D+00 -1.4642464148183D-01  4.0401564374384D-01
   152  1.5100000000000D+00 -1.4440731987900D-01  3.7561052446713D-01
   153  1.5200000000000D+00 -1.4218520910849D-01  3.4812471604293D-01
   154  1.5300000000000D+00 -1.3976058414307D-01  3.2160515420718D-01
   155  1.5400000000000D+00 -1.3713367414437D-01  2.9609350733302D-01
   156  1.5500000000000D+00 -1.3430265453693D-01  2.7162588148191D-01
   157  1.5600000000000D+00 -1.3126364781181D-01  2.4823253233151D-01
   158  1.5700000000000D+00 -1.2801073265391D-01  2.2593758804328D-01
   159  1.5800000000000D+00 -1.2453595999001D-01  2.0475877508449D-01
   160  1.5900000000000D+00 -1.2082940519887D-01  1.8470730524922D-01
   161  1.6000000000000D+00 -1.1687909937660D-01  1.6578713065865D-01
   162  1.6100000000000D+00 -1.1267113091141D-01  1.4799503469598D-01
   163  1.6200000000000D+00 -1.0819000340755D-01  1.3132205929924D-01
   164  1.6300000000000D+00 -1.0341892887349D-01  1.1575448874963D-01
   165  1.6400000000000D+00 -9.8340222744313D-02  1.0127524009346D-01
   166  1.6500000000000D+00 -9.2935509880441D-02  8.7864302823337D-02
   167  1.6600000000000D+00 -8.7185731316441D-02  7.5498129508381D-02
   168  1.6700000000000D+00 -8.1071252623184D-02  6.4149594738285D-02
   169  1.6800000000000D+00 -7.4571965281785D-02  5.3787961267461D-02
   170  1.6900000000000D+00 -6.7667364322859D-02  4.4378752511094D-02
   171  1.7000000000000D+00 -6.0336626915734D-02  3.5883673711017D-02
   172  1.7100000000000D+00 -5.2518713806155D-02  2.8249227581155D-02
   173  1.7200000000000D+00 -4.4275512924597D-02  2.1452730544332D-02
   174  1.7300000000000D+00 -3.5869268320325D-02  1.5528531020272D-02
   175  1.7400000000000D+00 -2.6669453718090D-02  1.0241670450671D-02
   176  1.7500000000000D+00 -1.5518235529758D-02  5.1823359039855D-03
   177  1.7600000000000D+00 -4.4467782317387D-03  9.2293504286512D-04
   178  1.7700000000000D+00  1.6171152277141D-03 -1.0826983722455D-03
   179  1.7800000000000D+00  1.5457301290030D-03 -7.4007052011672D-04
   180  1.7900000000000D+00 -2.3888336952879D-04  1.2187758565477D-04
   181  1.8000000000000D+00 -4.5210656860527D-04  2.2076617984329D-04
   182  1.8100000000000D+00  1.5619881177514D-05 -9.4718835115243D-06
   183  1.8200000000000D+00  6.7674783397107D-05 -4.0152990807593D-05
   184  1.8300000000000D+00  3.4320859382272D-06 -2.0051081276813D-06
   185  1.8400000000000D+00 -8.2530846901385D-07  1.9942559797001D-06
   186  1.8500000000000D+00 -2.5610761835466D-07  6.1885242733641D-07
   187  1.8600000000000D+00  0.0000000000000D+00  0.0000000000000D+00
   188  1.8700000000000D+00  0.0000000000000D+00  0.0000000000000D+00
   189  1.8800000000000D+00  0.0000000000000D+00  0.0000000000000D+00
   190  1.8900000000000D+00  0.0000000000000D+00  0.0000000000000D+00
   191  1.9000000000000D+00  0.0000000000000D+00  0.0000000000000D+00
   192  1.9100000000000D+00  0.0000000000000D+00  0.0000000000000D+00
   193  1.9200000000000D+00  0.0000000000000D+00  0.0000000000000D+00
   194  1.9300000000000D+00  0.0000000000000D+00  0.0000000000000D+00
   195  1.9400000000000D+00  0.0000000000000D+00  0.0000000000000D+00
   196  1.9500000000000D+00  0.0000000000000D+00  0.0000000000000D+00
   197  1.9600000000000D+00  0.0000000000000D+00  0.0000000000000D+00
   198  1.9700000000000D+00  0.0000000000000D+00  0.0000000000000D+00
   199  1.9800000000000D+00  0.0000000000000D+00  0.0000000000000D+00
   200  1.9900000000000D+00  0.0000000000000D+00  0.0000000000000D+00
   201  2.0000000000000D+00  0.0000000000000D+00  0.0000000000000D+00
   202  2.0100000000000D+00  0.0000000000000D+00  0.0000000000000D+00
   203  2.0200000000000D+00  0.0000000000000D+00  0.0000000000000D+00
   204  2.0300000000000D+00  0.0000000000000D+00  0.0000000000000D+00
   205  2.0400000000000D+00  0.0000000000000D+00  0.0000000000000D+00
   206  2.0500000000000D+00  0.0000000000000D+00  0.0000000000000D+00
   207  2.0600000000000D+00  0.0000000000000D+00  0.0000000000000D+00
   208  2.0700000000000D+00  0.0000000000000D+00  0.0000000000000D+00
   209  2.0800000000000D+00  0.0000000000000D+00  0.0000000000000D+00
   210  2.0900000000000D+00  0.0000000000000D+00  0.0000000000000D+00
   211  2.1000000000000D+00  0.0000000000000D+00  0.0000000000000D+00
   212  2.1100000000000D+00  0.0000000000000D+00  0.0000000000000D+00
   213  2.1200000000000D+00  0.0000000000000D+00  0.0000000000000D+00
   214  2.1300000000000D+00  0.0000000000000D+00  0.0000000000000D+00
   215  2.1400000000000D+00  0.0000000000000D+00  0.0000000000000D+00
   216  2.1500000000000D+00  0.0000000000000D+00  0.0000000000000D+00
   217  2.1600000000000D+00  0.0000000000000D+00  0.0000000000000D+00
   218  2.1700000000000D+00  0.0000000000000D+00  0.0000000000000D+00
   219  2.1800000000000D+00  0.0000000000000D+00  0.0000000000000D+00
   220  2.1900000000000D+00  0.0000000000000D+00  0.0000000000000D+00
   221  2.2000000000000D+00  0.0000000000000D+00  0.0000000000000D+00
   222  2.2100000000000D+00  0.0000000000000D+00  0.0000000000000D+00
   223  2.2200000000000D+00  0.0000000000000D+00  0.0000000000000D+00
   224  2.2300000000000D+00  0.0000000000000D+00  0.0000000000000D+00
   225  2.2400000000000D+00  0.0000000000000D+00  0.0000000000000D+00
   226  2.2500000000000D+00  0.0000000000000D+00  0.0000000000000D+00
   227  2.2600000000000D+00  0.0000000000000D+00  0.0000000000000D+00
   228  2.2700000000000D+00  0.0000000000000D+00  0.0000000000000D+00
   229  2.2800000000000D+00  0.0000000000000D+00  0.0000000000000D+00
   230  2.2900000000000D+00  0.0000000000000D+00  0.0000000000000D+00
   231  2.3000000000000D+00  0.0000000000000D+00  0.0000000000000D+00
   232  2.3100000000000D+00  0.0000000000000D+00  0.0000000000000D+00
   233  2.3200000000000D+00  0.0000000000000D+00  0.0000000000000D+00
   234  2.3300000000000D+00  0.0000000000000D+00  0.0000000000000D+00
   235  2.3400000000000D+00  0.0000000000000D+00  0.0000000000000D+00
   236  2.3500000000000D+00  0.0000000000000D+00  0.0000000000000D+00
   237  2.3600000000000D+00  0.0000000000000D+00  0.0000000000000D+00
   238  2.3700000000000D+00  0.0000000000000D+00  0.0000000000000D+00
   239  2.3800000000000D+00  0.0000000000000D+00  0.0000000000000D+00
   240  2.3900000000000D+00  0.0000000000000D+00  0.0000000000000D+00
   241  2.4000000000000D+00  0.0000000000000D+00  0.0000000000000D+00
   242  2.4100000000000D+00  0.0000000000000D+00  0.0000000000000D+00
   243  2.4200000000000D+00  0.0000000000000D+00  0.0000000000000D+00
   244  2.4300000000000D+00  0.0000000000000D+00  0.0000000000000D+00
   245  2.4400000000000D+00  0.0000000000000D+00  0.0000000000000D+00
   246  2.4500000000000D+00  0.0000000000000D+00  0.0000000000000D+00
   247  2.4600000000000D+00  0.0000000000000D+00  0.0000000000000D+00
   248  2.4700000000000D+00  0.0000000000000D+00  0.0000000000000D+00
   249  2.4800000000000D+00  0.0000000000000D+00  0.0000000000000D+00
   250  2.4900000000000D+00  0.0000000000000D+00  0.0000000000000D+00
   251  2.5000000000000D+00  0.0000000000000D+00  0.0000000000000D+00
   252  2.5100000000000D+00  0.0000000000000D+00  0.0000000000000D+00
   253  2.5200000000000D+00  0.0000000000000D+00  0.0000000000000D+00
   254  2.5300000000000D+00  0.0000000000000D+00  0.0000000000000D+00
   255  2.5400000000000D+00  0.0000000000000D+00  0.0000000000000D+00
   256  2.5500000000000D+00  0.0000000000000D+00  0.0000000000000D+00
   257  2.5600000000000D+00  0.0000000000000D+00  0.0000000000000D+00
   258  2.5700000000000D+00  0.0000000000000D+00  0.0000000000000D+00
   259  2.5800000000000D+00  0.0000000000000D+00  0.0000000000000D+00
   260  2.5900000000000D+00  0.0000000000000D+00  0.0000000000000D+00
   261  2.6000000000000D+00  0.0000000000000D+00  0.0000000000000D+00
   262  2.6100000000000D+00  0.0000000000000D+00  0.0000000000000D+00
   263  2.6200000000000D+00  0.0000000000000D+00  0.0000000000000D+00
   264  2.6300000000000D+00  0.0000000000000D+00  0.0000000000000D+00
   265  2.6400000000000D+00  0.0000000000000D+00  0.0000000000000D+00
   266  2.6500000000000D+00  0.0000000000000D+00  0.0000000000000D+00
   267  2.6600000000000D+00  0.0000000000000D+00  0.0000000000000D+00
   268  2.6700000000000D+00  0.0000000000000D+00  0.0000000000000D+00
   269  2.6800000000000D+00  0.0000000000000D+00  0.0000000000000D+00
   270  2.6900000000000D+00  0.0000000000000D+00  0.0000000000000D+00
   271  2.7000000000000D+00  0.0000000000000D+00  0.0000000000000D+00
   272  2.7100000000000D+00  0.0000000000000D+00  0.0000000000000D+00
   273  2.7200000000000D+00  0.0000000000000D+00  0.0000000000000D+00
   274  2.7300000000000D+00  0.0000000000000D+00  0.0000000000000D+00
   275  2.7400000000000D+00  0.0000000000000D+00  0.0000000000000D+00
   276  2.7500000000000D+00  0.0000000000000D+00  0.0000000000000D+00
   277  2.7600000000000D+00  0.0000000000000D+00  0.0000000000000D+00
   278  2.7700000000000D+00  0.0000000000000D+00  0.0000000000000D+00
   279  2.7800000000000D+00  0.0000000000000D+00  0.0000000000000D+00
   280  2.7900000000000D+00  0.0000000000000D+00  0.0000000000000D+00
   281  2.8000000000000D+00  0.0000000000000D+00  0.0000000000000D+00
   282  2.8100000000000D+00  0.0000000000000D+00  0.0000000000000D+00
   283  2.8200000000000D+00  0.0000000000000D+00  0.0000000000000D+00
   284  2.8300000000000D+00  0.0000000000000D+00  0.0000000000000D+00
   285  2.8400000000000D+00  0.0000000000000D+00  0.0000000000000D+00
   286  2.8500000000000D+00  0.0000000000000D+00  0.0000000000000D+00
   287  2.8600000000000D+00  0.0000000000000D+00  0.0000000000000D+00
   288  2.8700000000000D+00  0.0000000000000D+00  0.0000000000000D+00
   289  2.8800000000000D+00  0.0000000000000D+00  0.0000000000000D+00
   290  2.8900000000000D+00  0.0000000000000D+00  0.0000000000000D+00
   291  2.9000000000000D+00  0.0000000000000D+00  0.0000000000000D+00
   292  2.9100000000000D+00  0.0000000000000D+00  0.0000000000000D+00
   293  2.9200000000000D+00  0.0000000000000D+00  0.0000000000000D+00
   294  2.9300000000000D+00  0.0000000000000D+00  0.0000000000000D+00
   295  2.9400000000000D+00  0.0000000000000D+00  0.0000000000000D+00
   296  2.9500000000000D+00  0.0000000000000D+00  0.0000000000000D+00
   297  2.9600000000000D+00  0.0000000000000D+00  0.0000000000000D+00
   298  2.9700000000000D+00  0.0000000000000D+00  0.0000000000000D+00
   299  2.9800000000000D+00  0.0000000000000D+00  0.0000000000000D+00
   300  2.9900000000000D+00  0.0000000000000D+00  0.0000000000000D+00
   301  3.0000000000000D+00  0.0000000000000D+00  0.0000000000000D+00
   302  3.0100000000000D+00  0.0000000000000D+00  0.0000000000000D+00
   303  3.0200000000000D+00  0.0000000000000D+00  0.0000000000000D+00
   304  3.0300000000000D+00  0.0000000000000D+00  0.0000000000000D+00
   305  3.0400000000000D+00  0.0000000000000D+00  0.0000000000000D+00
   306  3.0500000000000D+00  0.0000000000000D+00  0.0000000000000D+00
   307  3.0600000000000D+00  0.0000000000000D+00  0.0000000000000D+00
   308  3.0700000000000D+00  0.0000000000000D+00  0.0000000000000D+00
   309  3.0800000000000D+00  0.0000000000000D+00  0.0000000000000D+00
   310  3.0900000000000D+00  0.0000000000000D+00  0.0000000000000D+00
   311  3.1000000000000D+00  0.0000000000000D+00  0.0000000000000D+00
   312  3.1100000000000D+00  0.0000000000000D+00  0.0000000000000D+00
   313  3.1200000000000D+00  0.0000000000000D+00  0.0000000000000D+00
   314  3.1300000000000D+00  0.0000000000000D+00  0.0000000000000D+00
   315  3.1400000000000D+00  0.0000000000000D+00  0.0000000000000D+00
   316  3.1500000000000D+00  0.0000000000000D+00  0.0000000000000D+00
   317  3.1600000000000D+00  0.0000000000000D+00  0.0000000000000D+00
   318  3.1700000000000D+00  0.0000000000000D+00  0.0000000000000D+00
   319  3.1800000000000D+00  0.0000000000000D+00  0.0000000000000D+00
   320  3.1900000000000D+00  0.0000000000000D+00  0.0000000000000D+00
   321  3.2000000000000D+00  0.0000000000000D+00  0.0000000000000D+00
   322  3.2100000000000D+00  0.0000000000000D+00  0.0000000000000D+00
   323  3.2200000000000D+00  0.0000000000000D+00  0.0000000000000D+00
   324  3.2300000000000D+00  0.0000000000000D+00  0.0000000000000D+00
   325  3.2400000000000D+00  0.0000000000000D+00  0.0000000000000D+00
   326  3.2500000000000D+00  0.0000000000000D+00  0.0000000000000D+00
   327  3.2600000000000D+00  0.0000000000000D+00  0.0000000000000D+00
   328  3.2700000000000D+00  0.0000000000000D+00  0.0000000000000D+00
   329  3.2800000000000D+00  0.0000000000000D+00  0.0000000000000D+00
   330  3.2900000000000D+00  0.0000000000000D+00  0.0000000000000D+00
   331  3.3000000000000D+00  0.0000000000000D+00  0.0000000000000D+00
   332  3.3100000000000D+00  0.0000000000000D+00  0.0000000000000D+00
   333  3.3200000000000D+00  0.0000000000000D+00  0.0000000000000D+00
   334  3.3300000000000D+00  0.0000000000000D+00  0.0000000000000D+00
   335  3.3400000000000D+00  0.0000000000000D+00  0.0000000000000D+00
   336  3.3500000000000D+00  0.0000000000000D+00  0.0000000000000D+00
   337  3.3600000000000D+00  0.0000000000000D+00  0.0000000000000D+00
   338  3.3700000000000D+00  0.0000000000000D+00  0.0000000000000D+00
   339  3.3800000000000D+00  0.0000000000000D+00  0.0000000000000D+00
   340  3.3900000000000D+00  0.0000000000000D+00  0.0000000000000D+00
   341  3.4000000000000D+00  0.0000000000000D+00  0.0000000000000D+00
   342  3.4100000000000D+00  0.0000000000000D+00  0.0000000000000D+00
   343  3.4200000000000D+00  0.0000000000000D+00  0.0000000000000D+00
   344  3.4300000000000D+00  0.0000000000000D+00  0.0000000000000D+00
   345  3.4400000000000D+00  0.0000000000000D+00  0.0000000000000D+00
   346  3.4500000000000D+00  0.0000000000000D+00  0.0000000000000D+00
   347  3.4600000000000D+00  0.0000000000000D+00  0.0000000000000D+00
   348  3.4700000000000D+00  0.0000000000000D+00  0.0000000000000D+00
   349  3.4800000000000D+00  0.0000000000000D+00  0.0000000000000D+00
   350  3.4900000000000D+00  0.0000000000000D+00  0.0000000000000D+00
   351  3.5000000000000D+00  0.0000000000000D+00  0.0000000000000D+00
   352  3.5100000000000D+00  0.0000000000000D+00  0.0000000000000D+00
   353  3.5200000000000D+00  0.0000000000000D+00  0.0000000000000D+00
   354  3.5300000000000D+00  0.0000000000000D+00  0.0000000000000D+00
   355  3.5400000000000D+00  0.0000000000000D+00  0.0000000000000D+00
   356  3.5500000000000D+00  0.0000000000000D+00  0.0000000000000D+00
   357  3.5600000000000D+00  0.0000000000000D+00  0.0000000000000D+00
   358  3.5700000000000D+00  0.0000000000000D+00  0.0000000000000D+00
   359  3.5800000000000D+00  0.0000000000000D+00  0.0000000000000D+00
   360  3.5900000000000D+00  0.0000000000000D+00  0.0000000000000D+00
   361  3.6000000000000D+00  0.0000000000000D+00  0.0000000000000D+00
   362  3.6100000000000D+00  0.0000000000000D+00  0.0000000000000D+00
   363  3.6200000000000D+00  0.0000000000000D+00  0.0000000000000D+00
   364  3.6300000000000D+00  0.0000000000000D+00  0.0000000000000D+00
   365  3.6400000000000D+00  0.0000000000000D+00  0.0000000000000D+00
   366  3.6500000000000D+00  0.0000000000000D+00  0.0000000000000D+00
   367  3.6600000000000D+00  0.0000000000000D+00  0.0000000000000D+00
   368  3.6700000000000D+00  0.0000000000000D+00  0.0000000000000D+00
   369  3.6800000000000D+00  0.0000000000000D+00  0.0000000000000D+00
   370  3.6900000000000D+00  0.0000000000000D+00  0.0000000000000D+00
   371  3.7000000000000D+00  0.0000000000000D+00  0.0000000000000D+00
   372  3.7100000000000D+00  0.0000000000000D+00  0.0000000000000D+00
   373  3.7200000000000D+00  0.0000000000000D+00  0.0000000000000D+00
   374  3.7300000000000D+00  0.0000000000000D+00  0.0000000000000D+00
   375  3.7400000000000D+00  0.0000000000000D+00  0.0000000000000D+00
   376  3.7500000000000D+00  0.0000000000000D+00  0.0000000000000D+00
   377  3.7600000000000D+00  0.0000000000000D+00  0.0000000000000D+00
   378  3.7700000000000D+00  0.0000000000000D+00  0.0000000000000D+00
   379  3.7800000000000D+00  0.0000000000000D+00  0.0000000000000D+00
   380  3.7900000000000D+00  0.0000000000000D+00  0.0000000000000D+00
   381  3.8000000000000D+00  0.0000000000000D+00  0.0000000000000D+00
   382  3.8100000000000D+00  0.0000000000000D+00  0.0000000000000D+00
   383  3.8200000000000D+00  0.0000000000000D+00  0.0000000000000D+00
   384  3.8300000000000D+00  0.0000000000000D+00  0.0000000000000D+00
   385  3.8400000000000D+00  0.0000000000000D+00  0.0000000000000D+00
   386  3.8500000000000D+00  0.0000000000000D+00  0.0000000000000D+00
   387  3.8600000000000D+00  0.0000000000000D+00  0.0000000000000D+00
   388  3.8700000000000D+00  0.0000000000000D+00  0.0000000000000D+00
   389  3.8800000000000D+00  0.0000000000000D+00  0.0000000000000D+00
   390  3.8900000000000D+00  0.0000000000000D+00  0.0000000000000D+00
   391  3.9000000000000D+00  0.0000000000000D+00  0.0000000000000D+00
   392  3.9100000000000D+00  0.0000000000000D+00  0.0000000000000D+00
   393  3.9200000000000D+00  0.0000000000000D+00  0.0000000000000D+00
   394  3.9300000000000D+00  0.0000000000000D+00  0.0000000000000D+00
   395  3.9400000000000D+00  0.0000000000000D+00  0.0000000000000D+00
   396  3.9500000000000D+00  0.0000000000000D+00  0.0000000000000D+00
   397  3.9600000000000D+00  0.0000000000000D+00  0.0000000000000D+00
   398  3.9700000000000D+00  0.0000000000000D+00  0.0000000000000D+00
   399  3.9800000000000D+00  0.0000000000000D+00  0.0000000000000D+00
   400  3.9900000000000D+00  0.0000000000000D+00  0.0000000000000D+00
   401  4.0000000000000D+00  0.0000000000000D+00  0.0000000000000D+00
   402  4.0100000000000D+00  0.0000000000000D+00  0.0000000000000D+00
   403  4.0200000000000D+00  0.0000000000000D+00  0.0000000000000D+00
   404  4.0300000000000D+00  0.0000000000000D+00  0.0000000000000D+00
   405  4.0400000000000D+00  0.0000000000000D+00  0.0000000000000D+00
   406  4.0500000000000D+00  0.0000000000000D+00  0.0000000000000D+00
   407  4.0600000000000D+00  0.0000000000000D+00  0.0000000000000D+00
   408  4.0700000000000D+00  0.0000000000000D+00  0.0000000000000D+00
   409  4.0800000000000D+00  0.0000000000000D+00  0.0000000000000D+00
   410  4.0900000000000D+00  0.0000000000000D+00  0.0000000000000D+00
   411  4.1000000000000D+00  0.0000000000000D+00  0.0000000000000D+00
   412  4.1100000000000D+00  0.0000000000000D+00  0.0000000000000D+00
   413  4.1200000000000D+00  0.0000000000000D+00  0.0000000000000D+00
   414  4.1300000000000D+00  0.0000000000000D+00  0.0000000000000D+00
   415  4.1400000000000D+00  0.0000000000000D+00  0.0000000000000D+00
   416  4.1500000000000D+00  0.0000000000000D+00  0.0000000000000D+00
   417  4.1600000000000D+00  0.0000000000000D+00  0.0000000000000D+00
   418  4.1700000000000D+00  0.0000000000000D+00  0.0000000000000D+00
   419  4.1800000000000D+00  0.0000000000000D+00  0.0000000000000D+00
   420  4.1900000000000D+00  0.0000000000000D+00  0.0000000000000D+00
   421  4.2000000000000D+00  0.0000000000000D+00  0.0000000000000D+00
   422  4.2100000000000D+00  0.0000000000000D+00  0.0000000000000D+00