As    ONCVPSP-3.3.0  r_core=   1.20565   1.40789   1.60529
     33.0000     23.0000      220117    zatom,zion,pspd
     8      11   2     4   600     0    pspcod,pspxc,lmax,lloc,mmax,r2well
  5.99000000  0.00000000  0.00000000    rchrg fchrg qchrg
     2     2     2     0     0    nproj
     1     1           extension_switch
   0                         4.0342762138561D+00 -2.3538247237373D+00
     1  0.0000000000000D+00  2.1496826541068D-09  5.6457616359751D-11
     2  1.0000000000000D-02  1.0069428242240D-01  4.0944379483185D-02
     3  2.0000000000000D-02  2.0102831008520D-01  8.1876008717053D-02
     4  3.0000000000000D-02  3.0064176466402D-01  1.2278191261693D-01
     5  4.0000000000000D-02  3.9917422936537D-01  1.6364866848474D-01
     6  5.0000000000000D-02  4.9626521078486D-01  2.0446218733111D-01
     7  6.0000000000000D-02  5.9155424452168D-01  2.4520750131227D-01
     8  7.0000000000000D-02  6.8468110990140D-01  2.8586855925331D-01
     9  8.0000000000000D-02  7.7528617700979D-01  3.2642803217328D-01
    10  9.0000000000000D-02  8.6301090661484D-01  3.6686713065754D-01
    11  1.0000000000000D-01  9.4749852049415D-01  4.0716543583923D-01
    12  1.1000000000000D-01  1.0283948562357D+00  4.4730074565658D-01
    13  1.2000000000000D-01  1.1053494167959D+00  4.8724893794400D-01
    14  1.3000000000000D-01  1.1780166210381D+00  5.2698385179578D-01
    15  1.4000000000000D-01  1.2460572572002D+00  5.6647718851062D-01
    16  1.5000000000000D-01  1.3091401368180D+00  6.0569843328446D-01
    17  1.6000000000000D-01  1.3669439421346D+00  6.4461479866941D-01
    18  1.7000000000000D-01  1.4191592555227D+00  6.8319119065790D-01
    19  1.8000000000000D-01  1.4654907550114D+00  7.2139019808555D-01
    20  1.9000000000000D-01  1.5056595557133D+00  7.5917210587377D-01
    21  2.0000000000000D-01  1.5394056728674D+00  7.9649493245533D-01
    22  2.1000000000000D-01  1.5664905784074D+00  8.3331449154421D-01
    23  2.2000000000000D-01  1.5866998195107D+00  8.6958447822553D-01
    24  2.3000000000000D-01  1.5998456645367D+00  9.0525657915457D-01
    25  2.4000000000000D-01  1.6057697391782D+00  9.4028060646589D-01
    26  2.5000000000000D-01  1.6043456135869D+00  9.7460465480625D-01
    27  2.6000000000000D-01  1.5954812997245D+00  1.0081752807200D+00
    28  2.7000000000000D-01  1.5791216172806D+00  1.0409377034334D+00
    29  2.8000000000000D-01  1.5552503862148D+00  1.0728360259066D+00
    30  2.9000000000000D-01  1.5238924043355D+00  1.1038134748511D+00
    31  3.0000000000000D-01  1.4851151693404D+00  1.1338126582451D+00
    32  3.1000000000000D-01  1.4390303064142D+00  1.1627758387249D+00
    33  3.2000000000000D-01  1.3857946647902D+00  1.1906452210822D+00
    34  3.3000000000000D-01  1.3256110496290D+00  1.2173632519656D+00
    35  3.4000000000000D-01  1.2587285591120D+00  1.2428729297577D+00
    36  3.5000000000000D-01  1.1854425007579D+00  1.2671181224949D+00
    37  3.6000000000000D-01  1.1060938655997D+00  1.2900438915982D+00
    38  3.7000000000000D-01  1.0210683439538D+00  1.3115968191067D+00
    39  3.8000000000000D-01  9.3079487200850D-01  1.3317253360413D+00
    40  3.9000000000000D-01  8.3574370429228D-01  1.3503800494822D+00
    41  4.0000000000000D-01  7.3642401316713D-01  1.3675140659150D+00
    42  4.1000000000000D-01  6.3338102276211D-01  1.3830833083909D+00
    43  4.2000000000000D-01  5.2719269111891D-01  1.3970468250588D+00
    44  4.3000000000000D-01  4.1846596068596D-01  1.4093670866519D+00
    45  4.4000000000000D-01  3.0783260357541D-01  1.4200102705656D+00
    46  4.5000000000000D-01  1.9594469409911D-01  1.4289465292262D+00
    47  4.6000000000000D-01  8.3469746936091D-02  1.4361502405407D+00
    48  4.7000000000000D-01 -2.8914435235696D-02  1.4416002383232D+00
    49  4.8000000000000D-01 -1.4052515576899D-01  1.4452800207168D+00
    50  4.9000000000000D-01 -2.5068040634309D-01  1.4471779347754D+00
    51  5.0000000000000D-01 -3.5870458020700D-01  1.4472873355266D+00
    52  5.1000000000000D-01 -4.6393425578926D-01  1.4456067180131D+00
    53  5.2000000000000D-01 -5.6572398755842D-01  1.4421398210025D+00
    54  5.3000000000000D-01 -6.6345203925814D-01  1.4368957012559D+00
    55  5.4000000000000D-01 -7.5652599369820D-01  1.4298887774650D+00
    56  5.5000000000000D-01 -8.4438817318984D-01  1.4211388431923D+00
    57  5.6000000000000D-01 -9.2652080548730D-01  1.4106710483851D+00
    58  5.7000000000000D-01 -1.0024508717507D+00  1.3985158492747D+00
    59  5.8000000000000D-01 -1.0717545755662D+00  1.3847089267226D+00
    60  5.9000000000000D-01 -1.1340613754425D+00  1.3692910733215D+00
    61  6.0000000000000D-01 -1.1890575274018D+00  1.3523080498130D+00
    62  6.1000000000000D-01 -1.2364890892897D+00  1.3338104116308D+00
    63  6.2000000000000D-01 -1.2761643441319D+00  1.3138533066257D+00
    64  6.3000000000000D-01 -1.3079556062909D+00  1.2924962452654D+00
    65  6.4000000000000D-01 -1.3318003811370D+00  1.2698028448377D+00
    66  6.5000000000000D-01 -1.3477018564669D+00  1.2458405494010D+00
    67  6.6000000000000D-01 -1.3557287118301D+00  1.2206803274404D+00
    68  6.7000000000000D-01 -1.3560142401338D+00  1.1943963493748D+00
    69  6.8000000000000D-01 -1.3487547843739D+00  1.1670656472431D+00
    70  6.9000000000000D-01 -1.3342075008763D+00  1.1387677590510D+00
    71  7.0000000000000D-01 -1.3126874689801D+00  1.1095843604002D+00
    72  7.1000000000000D-01 -1.2845641754641D+00  1.0795988861370D+00
    73  7.2000000000000D-01 -1.2502574102224D+00  1.0488961448491D+00
    74  7.3000000000000D-01 -1.2102326174555D+00  1.0175619291083D+00
    75  7.4000000000000D-01 -1.1649957539736D+00  9.8568262439641D-01
    76  7.5000000000000D-01 -1.1150877129528D+00  9.5334481967237D-01
    77  7.6000000000000D-01 -1.0610783775312D+00  9.2063492252129D-01
    78  7.7000000000000D-01 -1.0035603739271D+00  8.8763878179373D-01
    79  7.8000000000000D-01 -9.4314259818969D-01  8.5444132057482D-01
    80  7.9000000000000D-01 -8.8044359418526D-01  8.2112618223236D-01
    81  8.0000000000000D-01 -8.1608486293810D-01  7.8777539217444D-01
    82  8.1000000000000D-01 -7.5068418491980D-01  7.5446903780357D-01
    83  8.2000000000000D-01 -6.8484903728647D-01  7.2128496898667D-01
    84  8.3000000000000D-01 -6.1917018738287D-01  6.8829852116917D-01
    85  8.4000000000000D-01 -5.5421554205941D-01  6.5558226304971D-01
    86  8.5000000000000D-01 -4.9052432949626D-01  6.2320577050019D-01
    87  8.6000000000000D-01 -4.2860168632372D-01  5.9123542816744D-01
    88  8.7000000000000D-01 -3.6891371791289D-01  5.5973425992874D-01
    89  8.8000000000000D-01 -3.1188309384132D-01  5.2876178909709D-01
    90  8.9000000000000D-01 -2.5788523378642D-01  4.9837392898626D-01
    91  9.0000000000000D-01 -2.0724513154890D-01  4.6862290415183D-01
    92  9.1000000000000D-01 -1.6023485665534D-01  4.3955720232773D-01
    93  9.2000000000000D-01 -1.1707176414084D-01  4.1122155677829D-01
    94  9.3000000000000D-01 -7.7917433786718D-02  3.8365695848992D-01
    95  9.4000000000000D-01 -4.2877350407924D-02  3.5690069733372D-01
    96  9.5000000000000D-01 -1.2001326882560D-02  3.3098643104698D-01
    97  9.6000000000000D-01  1.4715338355297D-02  3.0594428060826D-01
    98  9.7000000000000D-01  3.7329987685965D-02  2.8180095031889D-01
    99  9.8000000000000D-01  5.5950042362109D-02  2.5857987066661D-01
   100  9.9000000000000D-01  7.0729789797868D-02  2.3630136181612D-01
   101  1.0000000000000D+00  8.1866566426107D-02  2.1498281537269D-01
   102  1.0100000000000D+00  8.9596390875109D-02  1.9463889188563D-01
   103  1.0200000000000D+00  9.4189109894627D-02  1.7528173140485D-01
   104  1.0300000000000D+00  9.5943126312203D-02  1.5692117427751D-01
   105  1.0400000000000D+00  9.5179784291699D-02  1.3956498927527D-01
   106  1.0500000000000D+00  9.2237491853809D-02  1.2321910607591D-01
   107  1.0600000000000D+00  8.7465664868264D-02  1.0788784908303D-01
   108  1.0700000000000D+00  8.1218579095590D-02  9.3574169564952D-02
   109  1.0800000000000D+00  7.3849218556739D-02  8.0279873116252D-02
   110  1.0900000000000D+00  6.5703208574002D-02  6.8005839510708D-02
   111  1.1000000000000D+00  5.7112921379938D-02  5.6752232078923D-02
   112  1.1100000000000D+00  4.8391839624065D-02  4.6518693883948D-02
   113  1.1200000000000D+00  3.9829260121353D-02  3.7304528092989D-02
   114  1.1300000000000D+00  3.1685415134978D-02  2.9108860135134D-02
   115  1.1400000000000D+00  2.4187084055268D-02  2.1930779391956D-02
   116  1.1500000000000D+00  1.7523760883066D-02  1.5769458416102D-02
   117  1.1600000000000D+00  1.1844435821556D-02  1.0624247894638D-02
   118  1.1700000000000D+00  7.2575423561011D-03  6.4970627069050D-03
   119  1.1800000000000D+00  3.8074343276231D-03  3.3733241362235D-03
   120  1.1900000000000D+00  1.5373316986315D-03  1.2770829638161D-03
   121  1.2000000000000D+00  4.7781940136623D-04  2.5527870759120D-04
   122  1.2100000000000D+00  1.2154259599867D-04 -2.1438680573343D-05
   123  1.2200000000000D+00  6.5524247117972D-07 -6.0097874705686D-07
   124  1.2300000000000D+00 -5.7942521372736D-06  9.5875281604305D-06
   125  1.2400000000000D+00  2.5040577500781D-06 -1.8556418725376D-06
   126  1.2500000000000D+00 -7.1793323657440D-08 -1.1847771617261D-08
   127  1.2600000000000D+00 -5.2710388620962D-07 -8.6985894289840D-08
   128  1.2700000000000D+00  0.0000000000000D+00  0.0000000000000D+00
   129  1.2800000000000D+00  0.0000000000000D+00  0.0000000000000D+00
   130  1.2900000000000D+00  0.0000000000000D+00  0.0000000000000D+00
   131  1.3000000000000D+00  0.0000000000000D+00  0.0000000000000D+00
   132  1.3100000000000D+00  0.0000000000000D+00  0.0000000000000D+00
   133  1.3200000000000D+00  0.0000000000000D+00  0.0000000000000D+00
   134  1.3300000000000D+00  0.0000000000000D+00  0.0000000000000D+00
   135  1.3400000000000D+00  0.0000000000000D+00  0.0000000000000D+00
   136  1.3500000000000D+00  0.0000000000000D+00  0.0000000000000D+00
   137  1.3600000000000D+00  0.0000000000000D+00  0.0000000000000D+00
   138  1.3700000000000D+00  0.0000000000000D+00  0.0000000000000D+00
   139  1.3800000000000D+00  0.0000000000000D+00  0.0000000000000D+00
   140  1.3900000000000D+00  0.0000000000000D+00  0.0000000000000D+00
   141  1.4000000000000D+00  0.0000000000000D+00  0.0000000000000D+00
   142  1.4100000000000D+00  0.0000000000000D+00  0.0000000000000D+00
   143  1.4200000000000D+00  0.0000000000000D+00  0.0000000000000D+00
   144  1.4300000000000D+00  0.0000000000000D+00  0.0000000000000D+00
   145  1.4400000000000D+00  0.0000000000000D+00  0.0000000000000D+00
   146  1.4500000000000D+00  0.0000000000000D+00  0.0000000000000D+00
   147  1.4600000000000D+00  0.0000000000000D+00  0.0000000000000D+00
   148  1.4700000000000D+00  0.0000000000000D+00  0.0000000000000D+00
   149  1.4800000000000D+00  0.0000000000000D+00  0.0000000000000D+00
   150  1.4900000000000D+00  0.0000000000000D+00  0.0000000000000D+00
   151  1.5000000000000D+00  0.0000000000000D+00  0.0000000000000D+00
   152  1.5100000000000D+00  0.0000000000000D+00  0.0000000000000D+00
   153  1.5200000000000D+00  0.0000000000000D+00  0.0000000000000D+00
   154  1.5300000000000D+00  0.0000000000000D+00  0.0000000000000D+00
   155  1.5400000000000D+00  0.0000000000000D+00  0.0000000000000D+00
   156  1.5500000000000D+00  0.0000000000000D+00  0.0000000000000D+00
   157  1.5600000000000D+00  0.0000000000000D+00  0.0000000000000D+00
   158  1.5700000000000D+00  0.0000000000000D+00  0.0000000000000D+00
   159  1.5800000000000D+00  0.0000000000000D+00  0.0000000000000D+00
   160  1.5900000000000D+00  0.0000000000000D+00  0.0000000000000D+00
   161  1.6000000000000D+00  0.0000000000000D+00  0.0000000000000D+00
   162  1.6100000000000D+00  0.0000000000000D+00  0.0000000000000D+00
   163  1.6200000000000D+00  0.0000000000000D+00  0.0000000000000D+00
   164  1.6300000000000D+00  0.0000000000000D+00  0.0000000000000D+00
   165  1.6400000000000D+00  0.0000000000000D+00  0.0000000000000D+00
   166  1.6500000000000D+00  0.0000000000000D+00  0.0000000000000D+00
   167  1.6600000000000D+00  0.0000000000000D+00  0.0000000000000D+00
   168  1.6700000000000D+00  0.0000000000000D+00  0.0000000000000D+00
   169  1.6800000000000D+00  0.0000000000000D+00  0.0000000000000D+00
   170  1.6900000000000D+00  0.0000000000000D+00  0.0000000000000D+00
   171  1.7000000000000D+00  0.0000000000000D+00  0.0000000000000D+00
   172  1.7100000000000D+00  0.0000000000000D+00  0.0000000000000D+00
   173  1.7200000000000D+00  0.0000000000000D+00  0.0000000000000D+00
   174  1.7300000000000D+00  0.0000000000000D+00  0.0000000000000D+00
   175  1.7400000000000D+00  0.0000000000000D+00  0.0000000000000D+00
   176  1.7500000000000D+00  0.0000000000000D+00  0.0000000000000D+00
   177  1.7600000000000D+00  0.0000000000000D+00  0.0000000000000D+00
   178  1.7700000000000D+00  0.0000000000000D+00  0.0000000000000D+00
   179  1.7800000000000D+00  0.0000000000000D+00  0.0000000000000D+00
   180  1.7900000000000D+00  0.0000000000000D+00  0.0000000000000D+00
   181  1.8000000000000D+00  0.0000000000000D+00  0.0000000000000D+00
   182  1.8100000000000D+00  0.0000000000000D+00  0.0000000000000D+00
   183  1.8200000000000D+00  0.0000000000000D+00  0.0000000000000D+00
   184  1.8300000000000D+00  0.0000000000000D+00  0.0000000000000D+00
   185  1.8400000000000D+00  0.0000000000000D+00  0.0000000000000D+00
   186  1.8500000000000D+00  0.0000000000000D+00  0.0000000000000D+00
   187  1.8600000000000D+00  0.0000000000000D+00  0.0000000000000D+00
   188  1.8700000000000D+00  0.0000000000000D+00  0.0000000000000D+00
   189  1.8800000000000D+00  0.0000000000000D+00  0.0000000000000D+00
   190  1.8900000000000D+00  0.0000000000000D+00  0.0000000000000D+00
   191  1.9000000000000D+00  0.0000000000000D+00  0.0000000000000D+00
   192  1.9100000000000D+00  0.0000000000000D+00  0.0000000000000D+00
   193  1.9200000000000D+00  0.0000000000000D+00  0.0000000000000D+00
   194  1.9300000000000D+00  0.0000000000000D+00  0.0000000000000D+00
   195  1.9400000000000D+00  0.0000000000000D+00  0.0000000000000D+00
   196  1.9500000000000D+00  0.0000000000000D+00  0.0000000000000D+00
   197  1.9600000000000D+00  0.0000000000000D+00  0.0000000000000D+00
   198  1.9700000000000D+00  0.0000000000000D+00  0.0000000000000D+00
   199  1.9800000000000D+00  0.0000000000000D+00  0.0000000000000D+00
   200  1.9900000000000D+00  0.0000000000000D+00  0.0000000000000D+00
   201  2.0000000000000D+00  0.0000000000000D+00  0.0000000000000D+00
   202  2.0100000000000D+00  0.0000000000000D+00  0.0000000000000D+00
   203  2.0200000000000D+00  0.0000000000000D+00  0.0000000000000D+00
   204  2.0300000000000D+00  0.0000000000000D+00  0.0000000000000D+00
   205  2.0400000000000D+00  0.0000000000000D+00  0.0000000000000D+00
   206  2.0500000000000D+00  0.0000000000000D+00  0.0000000000000D+00
   207  2.0600000000000D+00  0.0000000000000D+00  0.0000000000000D+00
   208  2.0700000000000D+00  0.0000000000000D+00  0.0000000000000D+00
   209  2.0800000000000D+00  0.0000000000000D+00  0.0000000000000D+00
   210  2.0900000000000D+00  0.0000000000000D+00  0.0000000000000D+00
   211  2.1000000000000D+00  0.0000000000000D+00  0.0000000000000D+00
   212  2.1100000000000D+00  0.0000000000000D+00  0.0000000000000D+00
   213  2.1200000000000D+00  0.0000000000000D+00  0.0000000000000D+00
   214  2.1300000000000D+00  0.0000000000000D+00  0.0000000000000D+00
   215  2.1400000000000D+00  0.0000000000000D+00  0.0000000000000D+00
   216  2.1500000000000D+00  0.0000000000000D+00  0.0000000000000D+00
   217  2.1600000000000D+00  0.0000000000000D+00  0.0000000000000D+00
   218  2.1700000000000D+00  0.0000000000000D+00  0.0000000000000D+00
   219  2.1800000000000D+00  0.0000000000000D+00  0.0000000000000D+00
   220  2.1900000000000D+00  0.0000000000000D+00  0.0000000000000D+00
   221  2.2000000000000D+00  0.0000000000000D+00  0.0000000000000D+00
   222  2.2100000000000D+00  0.0000000000000D+00  0.0000000000000D+00
   223  2.2200000000000D+00  0.0000000000000D+00  0.0000000000000D+00
   224  2.2300000000000D+00  0.0000000000000D+00  0.0000000000000D+00
   225  2.2400000000000D+00  0.0000000000000D+00  0.0000000000000D+00
   226  2.2500000000000D+00  0.0000000000000D+00  0.0000000000000D+00
   227  2.2600000000000D+00  0.0000000000000D+00  0.0000000000000D+00
   228  2.2700000000000D+00  0.0000000000000D+00  0.0000000000000D+00
   229  2.2800000000000D+00  0.0000000000000D+00  0.0000000000000D+00
   230  2.2900000000000D+00  0.0000000000000D+00  0.0000000000000D+00
   231  2.3000000000000D+00  0.0000000000000D+00  0.0000000000000D+00
   232  2.3100000000000D+00  0.0000000000000D+00  0.0000000000000D+00
   233  2.3200000000000D+00  0.0000000000000D+00  0.0000000000000D+00
   234  2.3300000000000D+00  0.0000000000000D+00  0.0000000000000D+00
   235  2.3400000000000D+00  0.0000000000000D+00  0.0000000000000D+00
   236  2.3500000000000D+00  0.0000000000000D+00  0.0000000000000D+00
   237  2.3600000000000D+00  0.0000000000000D+00  0.0000000000000D+00
   238  2.3700000000000D+00  0.0000000000000D+00  0.0000000000000D+00
   239  2.3800000000000D+00  0.0000000000000D+00  0.0000000000000D+00
   240  2.3900000000000D+00  0.0000000000000D+00  0.0000000000000D+00
   241  2.4000000000000D+00  0.0000000000000D+00  0.0000000000000D+00
   242  2.4100000000000D+00  0.0000000000000D+00  0.0000000000000D+00
   243  2.4200000000000D+00  0.0000000000000D+00  0.0000000000000D+00
   244  2.4300000000000D+00  0.0000000000000D+00  0.0000000000000D+00
   245  2.4400000000000D+00  0.0000000000000D+00  0.0000000000000D+00
   246  2.4500000000000D+00  0.0000000000000D+00  0.0000000000000D+00
   247  2.4600000000000D+00  0.0000000000000D+00  0.0000000000000D+00
   248  2.4700000000000D+00  0.0000000000000D+00  0.0000000000000D+00
   249  2.4800000000000D+00  0.0000000000000D+00  0.0000000000000D+00
   250  2.4900000000000D+00  0.0000000000000D+00  0.0000000000000D+00
   251  2.5000000000000D+00  0.0000000000000D+00  0.0000000000000D+00
   252  2.5100000000000D+00  0.0000000000000D+00  0.0000000000000D+00
   253  2.5200000000000D+00  0.0000000000000D+00  0.0000000000000D+00
   254  2.5300000000000D+00  0.0000000000000D+00  0.0000000000000D+00
   255  2.5400000000000D+00  0.0000000000000D+00  0.0000000000000D+00
   256  2.5500000000000D+00  0.0000000000000D+00  0.0000000000000D+00
   257  2.5600000000000D+00  0.0000000000000D+00  0.0000000000000D+00
   258  2.5700000000000D+00  0.0000000000000D+00  0.0000000000000D+00
   259  2.5800000000000D+00  0.0000000000000D+00  0.0000000000000D+00
   260  2.5900000000000D+00  0.0000000000000D+00  0.0000000000000D+00
   261  2.6000000000000D+00  0.0000000000000D+00  0.0000000000000D+00
   262  2.6100000000000D+00  0.0000000000000D+00  0.0000000000000D+00
   263  2.6200000000000D+00  0.0000000000000D+00  0.0000000000000D+00
   264  2.6300000000000D+00  0.0000000000000D+00  0.0000000000000D+00
   265  2.6400000000000D+00  0.0000000000000D+00  0.0000000000000D+00
   266  2.6500000000000D+00  0.0000000000000D+00  0.0000000000000D+00
   267  2.6600000000000D+00  0.0000000000000D+00  0.0000000000000D+00
   268  2.6700000000000D+00  0.0000000000000D+00  0.0000000000000D+00
   269  2.6800000000000D+00  0.0000000000000D+00  0.0000000000000D+00
   270  2.6900000000000D+00  0.0000000000000D+00  0.0000000000000D+00
   271  2.7000000000000D+00  0.0000000000000D+00  0.0000000000000D+00
   272  2.7100000000000D+00  0.0000000000000D+00  0.0000000000000D+00
   273  2.7200000000000D+00  0.0000000000000D+00  0.0000000000000D+00
   274  2.7300000000000D+00  0.0000000000000D+00  0.0000000000000D+00
   275  2.7400000000000D+00  0.0000000000000D+00  0.0000000000000D+00
   276  2.7500000000000D+00  0.0000000000000D+00  0.0000000000000D+00
   277  2.7600000000000D+00  0.0000000000000D+00  0.0000000000000D+00
   278  2.7700000000000D+00  0.0000000000000D+00  0.0000000000000D+00
   279  2.7800000000000D+00  0.0000000000000D+00  0.0000000000000D+00
   280  2.7900000000000D+00  0.0000000000000D+00  0.0000000000000D+00
   281  2.8000000000000D+00  0.0000000000000D+00  0.0000000000000D+00
   282  2.8100000000000D+00  0.0000000000000D+00  0.0000000000000D+00
   283  2.8200000000000D+00  0.0000000000000D+00  0.0000000000000D+00
   284  2.8300000000000D+00  0.0000000000000D+00  0.0000000000000D+00
   285  2.8400000000000D+00  0.0000000000000D+00  0.0000000000000D+00
   286  2.8500000000000D+00  0.0000000000000D+00  0.0000000000000D+00
   287  2.8600000000000D+00  0.0000000000000D+00  0.0000000000000D+00
   288  2.8700000000000D+00  0.0000000000000D+00  0.0000000000000D+00
   289  2.8800000000000D+00  0.0000000000000D+00  0.0000000000000D+00
   290  2.8900000000000D+00  0.0000000000000D+00  0.0000000000000D+00
   291  2.9000000000000D+00  0.0000000000000D+00  0.0000000000000D+00
   292  2.9100000000000D+00  0.0000000000000D+00  0.0000000000000D+00
   293  2.9200000000000D+00  0.0000000000000D+00  0.0000000000000D+00
   294  2.9300000000000D+00  0.0000000000000D+00  0.0000000000000D+00
   295  2.9400000000000D+00  0.0000000000000D+00  0.0000000000000D+00
   296  2.9500000000000D+00  0.0000000000000D+00  0.0000000000000D+00
   297  2.9600000000000D+00  0.0000000000000D+00  0.0000000000000D+00
   298  2.9700000000000D+00  0.0000000000000D+00  0.0000000000000D+00
   299  2.9800000000000D+00  0.0000000000000D+00  0.0000000000000D+00
   300  2.9900000000000D+00  0.0000000000000D+00  0.0000000000000D+00
   301  3.0000000000000D+00  0.0000000000000D+00  0.0000000000000D+00
   302  3.0100000000000D+00  0.0000000000000D+00  0.0000000000000D+00
   303  3.0200000000000D+00  0.0000000000000D+00  0.0000000000000D+00
   304  3.0300000000000D+00  0.0000000000000D+00  0.0000000000000D+00
   305  3.0400000000000D+00  0.0000000000000D+00  0.0000000000000D+00
   306  3.0500000000000D+00  0.0000000000000D+00  0.0000000000000D+00
   307  3.0600000000000D+00  0.0000000000000D+00  0.0000000000000D+00
   308  3.0700000000000D+00  0.0000000000000D+00  0.0000000000000D+00
   309  3.0800000000000D+00  0.0000000000000D+00  0.0000000000000D+00
   310  3.0900000000000D+00  0.0000000000000D+00  0.0000000000000D+00
   311  3.1000000000000D+00  0.0000000000000D+00  0.0000000000000D+00
   312  3.1100000000000D+00  0.0000000000000D+00  0.0000000000000D+00
   313  3.1200000000000D+00  0.0000000000000D+00  0.0000000000000D+00
   314  3.1300000000000D+00  0.0000000000000D+00  0.0000000000000D+00
   315  3.1400000000000D+00  0.0000000000000D+00  0.0000000000000D+00
   316  3.1500000000000D+00  0.0000000000000D+00  0.0000000000000D+00
   317  3.1600000000000D+00  0.0000000000000D+00  0.0000000000000D+00
   318  3.1700000000000D+00  0.0000000000000D+00  0.0000000000000D+00
   319  3.1800000000000D+00  0.0000000000000D+00  0.0000000000000D+00
   320  3.1900000000000D+00  0.0000000000000D+00  0.0000000000000D+00
   321  3.2000000000000D+00  0.0000000000000D+00  0.0000000000000D+00
   322  3.2100000000000D+00  0.0000000000000D+00  0.0000000000000D+00
   323  3.2200000000000D+00  0.0000000000000D+00  0.0000000000000D+00
   324  3.2300000000000D+00  0.0000000000000D+00  0.0000000000000D+00
   325  3.2400000000000D+00  0.0000000000000D+00  0.0000000000000D+00
   326  3.2500000000000D+00  0.0000000000000D+00  0.0000000000000D+00
   327  3.2600000000000D+00  0.0000000000000D+00  0.0000000000000D+00
   328  3.2700000000000D+00  0.0000000000000D+00  0.0000000000000D+00
   329  3.2800000000000D+00  0.0000000000000D+00  0.0000000000000D+00
   330  3.2900000000000D+00  0.0000000000000D+00  0.0000000000000D+00
   331  3.3000000000000D+00  0.0000000000000D+00  0.0000000000000D+00
   332  3.3100000000000D+00  0.0000000000000D+00  0.0000000000000D+00
   333  3.3200000000000D+00  0.0000000000000D+00  0.0000000000000D+00
   334  3.3300000000000D+00  0.0000000000000D+00  0.0000000000000D+00
   335  3.3400000000000D+00  0.0000000000000D+00  0.0000000000000D+00
   336  3.3500000000000D+00  0.0000000000000D+00  0.0000000000000D+00
   337  3.3600000000000D+00  0.0000000000000D+00  0.0000000000000D+00
   338  3.3700000000000D+00  0.0000000000000D+00  0.0000000000000D+00
   339  3.3800000000000D+00  0.0000000000000D+00  0.0000000000000D+00
   340  3.3900000000000D+00  0.0000000000000D+00  0.0000000000000D+00
   341  3.4000000000000D+00  0.0000000000000D+00  0.0000000000000D+00
   342  3.4100000000000D+00  0.0000000000000D+00  0.0000000000000D+00
   343  3.4200000000000D+00  0.0000000000000D+00  0.0000000000000D+00
   344  3.4300000000000D+00  0.0000000000000D+00  0.0000000000000D+00
   345  3.4400000000000D+00  0.0000000000000D+00  0.0000000000000D+00
   346  3.4500000000000D+00  0.0000000000000D+00  0.0000000000000D+00
   347  3.4600000000000D+00  0.0000000000000D+00  0.0000000000000D+00
   348  3.4700000000000D+00  0.0000000000000D+00  0.0000000000000D+00
   349  3.4800000000000D+00  0.0000000000000D+00  0.0000000000000D+00
   350  3.4900000000000D+00  0.0000000000000D+00  0.0000000000000D+00
   351  3.5000000000000D+00  0.0000000000000D+00  0.0000000000000D+00
   352  3.5100000000000D+00  0.0000000000000D+00  0.0000000000000D+00
   353  3.5200000000000D+00  0.0000000000000D+00  0.0000000000000D+00
   354  3.5300000000000D+00  0.0000000000000D+00  0.0000000000000D+00
   355  3.5400000000000D+00  0.0000000000000D+00  0.0000000000000D+00
   356  3.5500000000000D+00  0.0000000000000D+00  0.0000000000000D+00
   357  3.5600000000000D+00  0.0000000000000D+00  0.0000000000000D+00
   358  3.5700000000000D+00  0.0000000000000D+00  0.0000000000000D+00
   359  3.5800000000000D+00  0.0000000000000D+00  0.0000000000000D+00
   360  3.5900000000000D+00  0.0000000000000D+00  0.0000000000000D+00
   361  3.6000000000000D+00  0.0000000000000D+00  0.0000000000000D+00
   362  3.6100000000000D+00  0.0000000000000D+00  0.0000000000000D+00
   363  3.6200000000000D+00  0.0000000000000D+00  0.0000000000000D+00
   364  3.6300000000000D+00  0.0000000000000D+00  0.0000000000000D+00
   365  3.6400000000000D+00  0.0000000000000D+00  0.0000000000000D+00
   366  3.6500000000000D+00  0.0000000000000D+00  0.0000000000000D+00
   367  3.6600000000000D+00  0.0000000000000D+00  0.0000000000000D+00
   368  3.6700000000000D+00  0.0000000000000D+00  0.0000000000000D+00
   369  3.6800000000000D+00  0.0000000000000D+00  0.0000000000000D+00
   370  3.6900000000000D+00  0.0000000000000D+00  0.0000000000000D+00
   371  3.7000000000000D+00  0.0000000000000D+00  0.0000000000000D+00
   372  3.7100000000000D+00  0.0000000000000D+00  0.0000000000000D+00
   373  3.7200000000000D+00  0.0000000000000D+00  0.0000000000000D+00
   374  3.7300000000000D+00  0.0000000000000D+00  0.0000000000000D+00
   375  3.7400000000000D+00  0.0000000000000D+00  0.0000000000000D+00
   376  3.7500000000000D+00  0.0000000000000D+00  0.0000000000000D+00
   377  3.7600000000000D+00  0.0000000000000D+00  0.0000000000000D+00
   378  3.7700000000000D+00  0.0000000000000D+00  0.0000000000000D+00
   379  3.7800000000000D+00  0.0000000000000D+00  0.0000000000000D+00
   380  3.7900000000000D+00  0.0000000000000D+00  0.0000000000000D+00
   381  3.8000000000000D+00  0.0000000000000D+00  0.0000000000000D+00
   382  3.8100000000000D+00  0.0000000000000D+00  0.0000000000000D+00
   383  3.8200000000000D+00  0.0000000000000D+00  0.0000000000000D+00
   384  3.8300000000000D+00  0.0000000000000D+00  0.0000000000000D+00
   385  3.8400000000000D+00  0.0000000000000D+00  0.0000000000000D+00
   386  3.8500000000000D+00  0.0000000000000D+00  0.0000000000000D+00
   387  3.8600000000000D+00  0.0000000000000D+00  0.0000000000000D+00
   388  3.8700000000000D+00  0.0000000000000D+00  0.0000000000000D+00
   389  3.8800000000000D+00  0.0000000000000D+00  0.0000000000000D+00
   390  3.8900000000000D+00  0.0000000000000D+00  0.0000000000000D+00
   391  3.9000000000000D+00  0.0000000000000D+00  0.0000000000000D+00
   392  3.9100000000000D+00  0.0000000000000D+00  0.0000000000000D+00
   393  3.9200000000000D+00  0.0000000000000D+00  0.0000000000000D+00
   394  3.9300000000000D+00  0.0000000000000D+00  0.0000000000000D+00
   395  3.9400000000000D+00  0.0000000000000D+00  0.0000000000000D+00
   396  3.9500000000000D+00  0.0000000000000D+00  0.0000000000000D+00
   397  3.9600000000000D+00  0.0000000000000D+00  0.0000000000000D+00
   398  3.9700000000000D+00  0.0000000000000D+00  0.0000000000000D+00
   399  3.9800000000000D+00  0.0000000000000D+00  0.0000000000000D+00
   400  3.9900000000000D+00  0.0000000000000D+00  0.0000000000000D+00
   401  4.0000000000000D+00  0.0000000000000D+00  0.0000000000000D+00
   402  4.0100000000000D+00  0.0000000000000D+00  0.0000000000000D+00
   403  4.0200000000000D+00  0.0000000000000D+00  0.0000000000000D+00
   404  4.0300000000000D+00  0.0000000000000D+00  0.0000000000000D+00
   405  4.0400000000000D+00  0.0000000000000D+00  0.0000000000000D+00
   406  4.0500000000000D+00  0.0000000000000D+00  0.0000000000000D+00
   407  4.0600000000000D+00  0.0000000000000D+00  0.0000000000000D+00
   408  4.0700000000000D+00  0.0000000000000D+00  0.0000000000000D+00
   409  4.0800000000000D+00  0.0000000000000D+00  0.0000000000000D+00
   410  4.0900000000000D+00  0.0000000000000D+00  0.0000000000000D+00
   411  4.1000000000000D+00  0.0000000000000D+00  0.0000000000000D+00
   412  4.1100000000000D+00  0.0000000000000D+00  0.0000000000000D+00
   413  4.1200000000000D+00  0.0000000000000D+00  0.0000000000000D+00
   414  4.1300000000000D+00  0.0000000000000D+00  0.0000000000000D+00
   415  4.1400000000000D+00  0.0000000000000D+00  0.0000000000000D+00
   416  4.1500000000000D+00  0.0000000000000D+00  0.0000000000000D+00
   417  4.1600000000000D+00  0.0000000000000D+00  0.0000000000000D+00
   418  4.1700000000000D+00  0.0000000000000D+00  0.0000000000000D+00
   419  4.1800000000000D+00  0.0000000000000D+00  0.0000000000000D+00
   420  4.1900000000000D+00  0.0000000000000D+00  0.0000000000000D+00
   421  4.2000000000000D+00  0.0000000000000D+00  0.0000000000000D+00
   422  4.2100000000000D+00  0.0000000000000D+00  0.0000000000000D+00