As    ONCVPSP-3.3.0  r_core=   1.85233   1.80867   2.40819
     33.0000      5.0000      220117    zatom,zion,pspd
     8      11   2     4   600     0    pspcod,pspxc,lmax,lloc,mmax,r2well
  5.99000000  0.00000000  0.00000000    rchrg fchrg qchrg
     2     2     2     0     0    nproj
     1     1           extension_switch
   0                         8.5470901944515D+00  8.9847558496864D-01
     1  0.0000000000000D+00 -1.7178958255926D-10  1.9247839433412D-10
     2  1.0000000000000D-02  3.8542805753113D-02 -2.1090269915835D-02
     3  2.0000000000000D-02  7.7045614046334D-02 -4.2133921817703D-02
     4  3.0000000000000D-02  1.1546865151403D-01 -6.3084577620367D-02
     5  4.0000000000000D-02  1.5377258974943D-01 -8.3896335603736D-02
     6  5.0000000000000D-02  1.9191875975429D-01 -1.0452399991438D-01
     7  6.0000000000000D-02  2.2986935687645D-01 -1.2492329978833D-01
     8  7.0000000000000D-02  2.6758763326890D-01 -1.4505109529792D-01
     9  8.0000000000000D-02  3.0503807507584D-01 -1.6486556661799D-01
    10  9.0000000000000D-02  3.4218656176172D-01 -1.8432638404262D-01
    11  1.0000000000000D-01  3.7900050524606D-01 -2.0339485626002D-01
    12  1.1000000000000D-01  4.1544896678645D-01 -2.2203405470607D-01
    13  1.2000000000000D-01  4.5150274986136D-01 -2.4020891216339D-01
    14  1.3000000000000D-01  4.8713446763870D-01 -2.5788629414638D-01
    15  1.4000000000000D-01  5.2231858397186D-01 -2.7503504201086D-01
    16  1.5000000000000D-01  5.5703142723712D-01 -2.9162598714225D-01
    17  1.6000000000000D-01  5.9125117671030D-01 -3.0763193600522D-01
    18  1.7000000000000D-01  6.2495782157117D-01 -3.2302762627295D-01
    19  1.8000000000000D-01  6.5813309301683D-01 -3.3778965469195D-01
    20  1.9000000000000D-01  6.9076037035395D-01 -3.5189637777025D-01
    21  2.0000000000000D-01  7.2282456232084D-01 -3.6532778679981D-01
    22  2.1000000000000D-01  7.5431196525685D-01 -3.7806535913035D-01
    23  2.2000000000000D-01  7.8521010008562D-01 -3.9009188799678D-01
    24  2.3000000000000D-01  8.1550753040429D-01 -4.0139129356115D-01
    25  2.4000000000000D-01  8.4519366426875D-01 -4.1194841815629D-01
    26  2.5000000000000D-01  8.7425854253201D-01 -4.2174880900880D-01
    27  2.6000000000000D-01  9.0269261682402D-01 -4.3077849196891D-01
    28  2.7000000000000D-01  9.3048652045434D-01 -4.3902373997996D-01
    29  2.8000000000000D-01  9.5763083567074D-01 -4.4647084017808D-01
    30  2.9000000000000D-01  9.8411586081471D-01 -4.5310586362079D-01
    31  3.0000000000000D-01  1.0099313809776D+00 -4.5891444169836D-01
    32  3.1000000000000D-01  1.0350664457771D+00 -4.6388155328409D-01
    33  3.2000000000000D-01  1.0595091578418D+00 -4.6799132662717D-01
    34  3.3000000000000D-01  1.0832464755141D+00 -4.7122685988508D-01
    35  3.4000000000000D-01  1.1062640331546D+00 -4.7357006403199D-01
    36  3.5000000000000D-01  1.1285459822604D+00 -4.7500153166657D-01
    37  3.6000000000000D-01  1.1500748563951D+00 -4.7550043497893D-01
    38  3.7000000000000D-01  1.1708314626686D+00 -4.7504445582505D-01
    39  3.8000000000000D-01  1.1907948022117D+00 -4.7360975050042D-01
    40  3.9000000000000D-01  1.2099420217557D+00 -4.7117095140764D-01
    41  4.0000000000000D-01  1.2282483980639D+00 -4.6770120737855D-01
    42  4.1000000000000D-01  1.2456873565715D+00 -4.6317226394607D-01
    43  4.2000000000000D-01  1.2622305251724D+00 -4.5755458436848D-01
    44  4.3000000000000D-01  1.2778478236614D+00 -4.5081751169637D-01
    45  4.4000000000000D-01  1.2925075888901D+00 -4.4292947164444D-01
    46  4.5000000000000D-01  1.3061767352438D+00 -4.3385821549417D-01
    47  4.6000000000000D-01  1.3188209495883D+00 -4.2357110171527D-01
    48  4.7000000000000D-01  1.3304049193816D+00 -4.1203541445943D-01
    49  4.8000000000000D-01  1.3408925922039D+00 -3.9921871655751D-01
    50  4.9000000000000D-01  1.3502474645254D+00 -3.8508923414515D-01
    51  5.0000000000000D-01  1.3584328971262D+00 -3.6961626956085D-01
    52  5.1000000000000D-01  1.3654124541945D+00 -3.5277063870858D-01
    53  5.2000000000000D-01  1.3711502627757D+00 -3.3452512866105D-01
    54  5.3000000000000D-01  1.3756113889262D+00 -3.1485497090629D-01
    55  5.4000000000000D-01  1.3787622266438D+00 -2.9373832531147D-01
    56  5.5000000000000D-01  1.3805708954108D+00 -2.7115676960207D-01
    57  5.6000000000000D-01  1.3810076419920D+00 -2.4709578893245D-01
    58  5.7000000000000D-01  1.3800452419902D+00 -2.2154525996174D-01
    59  5.8000000000000D-01  1.3776593965696D+00 -1.9449992374687D-01
    60  5.9000000000000D-01  1.3738291197212D+00 -1.6595984172753D-01
    61  6.0000000000000D-01  1.3685371114584D+00 -1.3593082910444D-01
    62  6.1000000000000D-01  1.3617701124064D+00 -1.0442486000559D-01
    63  6.2000000000000D-01  1.3535192353697D+00 -7.1460438992612D-02
    64  6.3000000000000D-01  1.3437802696447D+00 -3.7062933683621D-02
    65  6.4000000000000D-01  1.3325539540731D+00 -1.2648635530931D-03
    66  6.5000000000000D-01  1.3198462151132D+00  3.5893859683223D-02
    67  6.6000000000000D-01  1.3056683665341D+00  7.4365744286001D-02
    68  6.7000000000000D-01  1.2900372677065D+00  1.1409558704466D-01
    69  6.8000000000000D-01  1.2729754378781D+00  1.5502040138787D-01
    70  6.9000000000000D-01  1.2545111242631D+00  1.9706940772585D-01
    71  7.0000000000000D-01  1.2346783222561D+00  2.4016408810822D-01
    72  7.1000000000000D-01  1.2135167465756D+00  2.8421830666223D-01
    73  7.2000000000000D-01  1.1910717526692D+00  3.2913849662578D-01
    74  7.3000000000000D-01  1.1673942082412D+00  3.7482391412638D-01
    75  7.4000000000000D-01  1.1425403153066D+00  4.2116695817938D-01
    76  7.5000000000000D-01  1.1165713837180D+00  4.6805355569682D-01
    77  7.6000000000000D-01  1.0895535576462D+00  5.1536360962227D-01
    78  7.7000000000000D-01  1.0615574970231D+00  5.6297150763884D-01
    79  7.8000000000000D-01  1.0326580164610D+00  6.1074668824952D-01
    80  7.9000000000000D-01  1.0029336846477D+00  6.5855426040761D-01
    81  8.0000000000000D-01  9.7246638766684D-01  7.0625567228520D-01
    82  8.1000000000000D-01  9.4134086011685D-01  7.5370942421867D-01
    83  8.2000000000000D-01  9.0964418827431D-01  8.0077182036650D-01
    84  8.3000000000000D-01  8.7746528988508D-01  8.4729775316452D-01
    85  8.4000000000000D-01  8.4489437544797D-01  8.9314151426949D-01
    86  8.5000000000000D-01  8.1202239608771D-01  9.3815762535111D-01
    87  8.6000000000000D-01  7.7894048328901D-01  9.8220168182763D-01
    88  8.7000000000000D-01  7.4573938588015D-01  1.0251312024450D+00
    89  8.8000000000000D-01  7.1250890971186D-01  1.0668064774764D+00
    90  8.9000000000000D-01  6.7933736547285D-01  1.1070914082707D+00
    91  9.0000000000000D-01  6.4631103001801D-01  1.1458543309036D+00
    92  9.1000000000000D-01  6.1351362645926D-01  1.1829688167872D+00
    93  9.2000000000000D-01  5.8102582808287D-01  1.2183144432686D+00
    94  9.3000000000000D-01  5.4892479091329D-01  1.2517775274968D+00
    95  9.4000000000000D-01  5.1728371944473D-01  1.2832518171555D+00
    96  9.5000000000000D-01  4.8617146971032D-01  1.3126391320448D+00
    97  9.6000000000000D-01  4.5565219346075D-01  1.3398499509415D+00
    98  9.7000000000000D-01  4.2578502677494D-01  1.3648039386846D+00
    99  9.8000000000000D-01  3.9662382595756D-01  1.3874304089717D+00
   100  9.9000000000000D-01  3.6821695304812D-01  1.4076687189807D+00
   101  1.0000000000000D+00  3.4060711273233D-01  1.4254685925652D+00
   102  1.0100000000000D+00  3.1383124188205D-01  1.4407903694571D+00
   103  1.0200000000000D+00  2.8792045237212D-01  1.4536051786115D+00
   104  1.0300000000000D+00  2.6290002723797D-01  1.4638950345556D+00
   105  1.0400000000000D+00  2.3878946963744D-01  1.4716528563543D+00
   106  1.0500000000000D+00  2.1560260354251D-01  1.4768824094847D+00
   107  1.0600000000000D+00  1.9334772445919D-01  1.4795981717202D+00
   108  1.0700000000000D+00  1.7202779797064D-01  1.4798251247830D+00
   109  1.0800000000000D+00  1.5164070336221D-01  1.4775984742350D+00
   110  1.0900000000000D+00  1.3217951907798D-01  1.4729633007696D+00
   111  1.1000000000000D+00  1.1363284637066D-01  1.4659741466039D+00
   112  1.1100000000000D+00  9.5985167008977D-02  1.4566945413802D+00
   113  1.1200000000000D+00  7.9217230616048D-02  1.4451964724200D+00
   114  1.1300000000000D+00  6.3306466869407D-02  1.4315598047129D+00
   115  1.1400000000000D+00  4.8227417579861D-02  1.4158716563688D+00
   116  1.1500000000000D+00  3.3952183429784D-02  1.3982257356920D+00
   117  1.1600000000000D+00  2.0450880048400D-02  1.3787216462758D+00
   118  1.1700000000000D+00  7.6920980502147D-03  1.3574641667272D+00
   119  1.1800000000000D+00 -4.3566383688986D-03  1.3345625117616D+00
   120  1.1900000000000D+00 -1.5728419610775D-02  1.3101295815106D+00
   121  1.2000000000000D+00 -2.6456510813806D-02  1.2842812058242D+00
   122  1.2100000000000D+00 -3.6573928944047D-02  1.2571353902601D+00
   123  1.2200000000000D+00 -4.6113041671111D-02  1.2288115703779D+00
   124  1.2300000000000D+00 -5.5105192434244D-02  1.1994298806310D+00
   125  1.2400000000000D+00 -6.3580355705135D-02  1.1691104437871D+00
   126  1.2500000000000D+00 -7.1566826365392D-02  1.1379726867652D+00
   127  1.2600000000000D+00 -7.9090946259450D-02  1.1061346879867D+00
   128  1.2700000000000D+00 -8.6176870581400D-02  1.0737125609157D+00
   129  1.2800000000000D+00 -9.2846376637922D-02  1.0408198783799D+00
   130  1.2900000000000D+00 -9.9118716424590D-02  1.0075671411500D+00
   131  1.3000000000000D+00 -1.0501051398510D-01  9.7406129372638D-01
   132  1.3100000000000D+00 -1.1053570856127D-01  9.4040529036019D-01
   133  1.3200000000000D+00 -1.1570554304639D-01  9.0669771272158D-01
   134  1.3300000000000D+00 -1.2052859709285D-01  8.7303244040079D-01
   135  1.3400000000000D+00 -1.2501086414657D-01  8.3949837539317D-01
   136  1.3500000000000D+00 -1.2915587002412D-01  8.0617921980192D-01
   137  1.3600000000000D+00 -1.3296483106233D-01  7.7315330643462D-01
   138  1.3700000000000D+00 -1.3643684916340D-01  7.4049348119923D-01
   139  1.3800000000000D+00 -1.3956913996285D-01  7.0826703478115D-01
   140  1.3900000000000D+00 -1.4235729102510D-01  6.7653568196029D-01
   141  1.4000000000000D+00 -1.4479554555667D-01  6.4535558513467D-01
   142  1.4100000000000D+00 -1.4687710731916D-01  6.1477741870436D-01
   143  1.4200000000000D+00 -1.4859446229235D-01  5.8484647099662D-01
   144  1.4300000000000D+00 -1.4993971182859D-01  5.5560277893892D-01
   145  1.4400000000000D+00 -1.5090491262586D-01  5.2708129172234D-01
   146  1.4500000000000D+00 -1.5148241808957D-01  4.9931205837991D-01
   147  1.4600000000000D+00 -1.5166521626835D-01  4.7232043478268D-01
   148  1.4700000000000D+00 -1.5144725882624D-01  4.4612730500212D-01
   149  1.4800000000000D+00 -1.5082377671421D-01  4.2074931239056D-01
   150  1.4900000000000D+00 -1.4979157694017D-01  3.9619909523266D-01
   151  1.5000000000000D+00 -1.4834931662803D-01  3.7248552257307D-01
   152  1.5100000000000D+00 -1.4649774963364D-01  3.4961392551269D-01
   153  1.5200000000000D+00 -1.4423994172630D-01  3.2758631948922D-01
   154  1.5300000000000D+00 -1.4158145160734D-01  3.0640161424828D-01
   155  1.5400000000000D+00 -1.3853047303578D-01  2.8605580642940D-01
   156  1.5500000000000D+00 -1.3509793789570D-01  2.6654215278370D-01
   157  1.5600000000000D+00 -1.3129757496621D-01  2.4785131955869D-01
   158  1.5700000000000D+00 -1.2714592727627D-01  2.2997151189570D-01
   159  1.5800000000000D+00 -1.2266232185602D-01  2.1288856886307D-01
   160  1.5900000000000D+00 -1.1786882679565D-01  1.9658618363885D-01
   161  1.6000000000000D+00 -1.1279002841884D-01  1.8104544792075D-01
   162  1.6100000000000D+00 -1.0745293797380D-01  1.6624519485090D-01
   163  1.6200000000000D+00 -1.0188711856240D-01  1.5216364001997D-01
   164  1.6300000000000D+00 -9.6124698656737D-02  1.3877953531165D-01
   165  1.6400000000000D+00 -9.0200449373472D-02  1.2607368861968D-01
   166  1.6500000000000D+00 -8.4151625176705D-02  1.1402948738371D-01
   167  1.6600000000000D+00 -7.8017561354593D-02  1.0263232913360D-01
   168  1.6700000000000D+00 -7.1839348413564D-02  9.1869583119644D-02
   169  1.6800000000000D+00 -6.5659474938870D-02  8.1730523020740D-02
   170  1.6900000000000D+00 -5.9521426080720D-02  7.2206131104633D-02
   171  1.7000000000000D+00 -5.3469269457302D-02  6.3288920590710D-02
   172  1.7100000000000D+00 -4.7547221990450D-02  5.4972720416156D-02
   173  1.7200000000000D+00 -4.1799206821592D-02  4.7252446409061D-02
   174  1.7300000000000D+00 -3.6268405447795D-02  4.0123859914058D-02
   175  1.7400000000000D+00 -3.0996809815897D-02  3.3583317656225D-02
   176  1.7500000000000D+00 -2.6024780786788D-02  2.7627517893259D-02
   177  1.7600000000000D+00 -2.1390617229986D-02  2.2253246274023D-02
   178  1.7700000000000D+00 -1.7130141905805D-02  1.7457126245060D-02
   179  1.7800000000000D+00 -1.3276308531494D-02  1.3235377504217D-02
   180  1.7900000000000D+00 -9.8595828970198D-03  9.5839232394655D-03
   181  1.8000000000000D+00 -6.9058790746214D-03  6.4973978324200D-03
   182  1.8100000000000D+00 -4.4319401873135D-03  3.9676762442492D-03
   183  1.8200000000000D+00 -2.4555872536257D-03  1.9888994586994D-03
   184  1.8300000000000D+00 -1.0149609343631D-03  5.5397197883462D-04
   185  1.8400000000000D+00 -1.1663395672309D-04 -3.6627446167830D-04
   186  1.8500000000000D+00  2.8579462215579D-04 -7.3904186070911D-04
   187  1.8600000000000D+00  2.8054829513433D-04 -5.7126537738574D-04
   188  1.8700000000000D+00  8.7565908495244D-05 -1.6642689971831D-04
   189  1.8800000000000D+00 -4.4017456682288D-05  8.1711140976954D-05
   190  1.8900000000000D+00 -4.0068262438223D-05  7.2870304143523D-05
   191  1.9000000000000D+00  5.2599520024877D-06 -1.0122731944326D-05
   192  1.9100000000000D+00  1.0705161847572D-05 -2.0400218715213D-05
   193  1.9200000000000D+00 -2.6669587568547D-08  6.2851565436072D-08
   194  1.9300000000000D+00 -8.9908419019561D-07  2.1188497447655D-06
   195  1.9400000000000D+00 -3.2350594222490D-07  7.6239855020053D-07
   196  1.9500000000000D+00  0.0000000000000D+00  0.0000000000000D+00
   197  1.9600000000000D+00  0.0000000000000D+00  0.0000000000000D+00
   198  1.9700000000000D+00  0.0000000000000D+00  0.0000000000000D+00
   199  1.9800000000000D+00  0.0000000000000D+00  0.0000000000000D+00
   200  1.9900000000000D+00  0.0000000000000D+00  0.0000000000000D+00
   201  2.0000000000000D+00  0.0000000000000D+00  0.0000000000000D+00
   202  2.0100000000000D+00  0.0000000000000D+00  0.0000000000000D+00
   203  2.0200000000000D+00  0.0000000000000D+00  0.0000000000000D+00
   204  2.0300000000000D+00  0.0000000000000D+00  0.0000000000000D+00
   205  2.0400000000000D+00  0.0000000000000D+00  0.0000000000000D+00
   206  2.0500000000000D+00  0.0000000000000D+00  0.0000000000000D+00
   207  2.0600000000000D+00  0.0000000000000D+00  0.0000000000000D+00
   208  2.0700000000000D+00  0.0000000000000D+00  0.0000000000000D+00
   209  2.0800000000000D+00  0.0000000000000D+00  0.0000000000000D+00
   210  2.0900000000000D+00  0.0000000000000D+00  0.0000000000000D+00
   211  2.1000000000000D+00  0.0000000000000D+00  0.0000000000000D+00
   212  2.1100000000000D+00  0.0000000000000D+00  0.0000000000000D+00
   213  2.1200000000000D+00  0.0000000000000D+00  0.0000000000000D+00
   214  2.1300000000000D+00  0.0000000000000D+00  0.0000000000000D+00
   215  2.1400000000000D+00  0.0000000000000D+00  0.0000000000000D+00
   216  2.1500000000000D+00  0.0000000000000D+00  0.0000000000000D+00
   217  2.1600000000000D+00  0.0000000000000D+00  0.0000000000000D+00
   218  2.1700000000000D+00  0.0000000000000D+00  0.0000000000000D+00
   219  2.1800000000000D+00  0.0000000000000D+00  0.0000000000000D+00
   220  2.1900000000000D+00  0.0000000000000D+00  0.0000000000000D+00
   221  2.2000000000000D+00  0.0000000000000D+00  0.0000000000000D+00
   222  2.2100000000000D+00  0.0000000000000D+00  0.0000000000000D+00
   223  2.2200000000000D+00  0.0000000000000D+00  0.0000000000000D+00
   224  2.2300000000000D+00  0.0000000000000D+00  0.0000000000000D+00
   225  2.2400000000000D+00  0.0000000000000D+00  0.0000000000000D+00
   226  2.2500000000000D+00  0.0000000000000D+00  0.0000000000000D+00
   227  2.2600000000000D+00  0.0000000000000D+00  0.0000000000000D+00
   228  2.2700000000000D+00  0.0000000000000D+00  0.0000000000000D+00
   229  2.2800000000000D+00  0.0000000000000D+00  0.0000000000000D+00
   230  2.2900000000000D+00  0.0000000000000D+00  0.0000000000000D+00
   231  2.3000000000000D+00  0.0000000000000D+00  0.0000000000000D+00
   232  2.3100000000000D+00  0.0000000000000D+00  0.0000000000000D+00
   233  2.3200000000000D+00  0.0000000000000D+00  0.0000000000000D+00
   234  2.3300000000000D+00  0.0000000000000D+00  0.0000000000000D+00
   235  2.3400000000000D+00  0.0000000000000D+00  0.0000000000000D+00
   236  2.3500000000000D+00  0.0000000000000D+00  0.0000000000000D+00
   237  2.3600000000000D+00  0.0000000000000D+00  0.0000000000000D+00
   238  2.3700000000000D+00  0.0000000000000D+00  0.0000000000000D+00
   239  2.3800000000000D+00  0.0000000000000D+00  0.0000000000000D+00
   240  2.3900000000000D+00  0.0000000000000D+00  0.0000000000000D+00
   241  2.4000000000000D+00  0.0000000000000D+00  0.0000000000000D+00
   242  2.4100000000000D+00  0.0000000000000D+00  0.0000000000000D+00
   243  2.4200000000000D+00  0.0000000000000D+00  0.0000000000000D+00
   244  2.4300000000000D+00  0.0000000000000D+00  0.0000000000000D+00
   245  2.4400000000000D+00  0.0000000000000D+00  0.0000000000000D+00
   246  2.4500000000000D+00  0.0000000000000D+00  0.0000000000000D+00
   247  2.4600000000000D+00  0.0000000000000D+00  0.0000000000000D+00
   248  2.4700000000000D+00  0.0000000000000D+00  0.0000000000000D+00
   249  2.4800000000000D+00  0.0000000000000D+00  0.0000000000000D+00
   250  2.4900000000000D+00  0.0000000000000D+00  0.0000000000000D+00
   251  2.5000000000000D+00  0.0000000000000D+00  0.0000000000000D+00
   252  2.5100000000000D+00  0.0000000000000D+00  0.0000000000000D+00
   253  2.5200000000000D+00  0.0000000000000D+00  0.0000000000000D+00
   254  2.5300000000000D+00  0.0000000000000D+00  0.0000000000000D+00
   255  2.5400000000000D+00  0.0000000000000D+00  0.0000000000000D+00
   256  2.5500000000000D+00  0.0000000000000D+00  0.0000000000000D+00
   257  2.5600000000000D+00  0.0000000000000D+00  0.0000000000000D+00
   258  2.5700000000000D+00  0.0000000000000D+00  0.0000000000000D+00
   259  2.5800000000000D+00  0.0000000000000D+00  0.0000000000000D+00
   260  2.5900000000000D+00  0.0000000000000D+00  0.0000000000000D+00
   261  2.6000000000000D+00  0.0000000000000D+00  0.0000000000000D+00
   262  2.6100000000000D+00  0.0000000000000D+00  0.0000000000000D+00
   263  2.6200000000000D+00  0.0000000000000D+00  0.0000000000000D+00
   264  2.6300000000000D+00  0.0000000000000D+00  0.0000000000000D+00
   265  2.6400000000000D+00  0.0000000000000D+00  0.0000000000000D+00
   266  2.6500000000000D+00  0.0000000000000D+00  0.0000000000000D+00
   267  2.6600000000000D+00  0.0000000000000D+00  0.0000000000000D+00
   268  2.6700000000000D+00  0.0000000000000D+00  0.0000000000000D+00
   269  2.6800000000000D+00  0.0000000000000D+00  0.0000000000000D+00
   270  2.6900000000000D+00  0.0000000000000D+00  0.0000000000000D+00
   271  2.7000000000000D+00  0.0000000000000D+00  0.0000000000000D+00
   272  2.7100000000000D+00  0.0000000000000D+00  0.0000000000000D+00
   273  2.7200000000000D+00  0.0000000000000D+00  0.0000000000000D+00
   274  2.7300000000000D+00  0.0000000000000D+00  0.0000000000000D+00
   275  2.7400000000000D+00  0.0000000000000D+00  0.0000000000000D+00
   276  2.7500000000000D+00  0.0000000000000D+00  0.0000000000000D+00
   277  2.7600000000000D+00  0.0000000000000D+00  0.0000000000000D+00
   278  2.7700000000000D+00  0.0000000000000D+00  0.0000000000000D+00
   279  2.7800000000000D+00  0.0000000000000D+00  0.0000000000000D+00
   280  2.7900000000000D+00  0.0000000000000D+00  0.0000000000000D+00
   281  2.8000000000000D+00  0.0000000000000D+00  0.0000000000000D+00
   282  2.8100000000000D+00  0.0000000000000D+00  0.0000000000000D+00
   283  2.8200000000000D+00  0.0000000000000D+00  0.0000000000000D+00
   284  2.8300000000000D+00  0.0000000000000D+00  0.0000000000000D+00
   285  2.8400000000000D+00  0.0000000000000D+00  0.0000000000000D+00
   286  2.8500000000000D+00  0.0000000000000D+00  0.0000000000000D+00
   287  2.8600000000000D+00  0.0000000000000D+00  0.0000000000000D+00
   288  2.8700000000000D+00  0.0000000000000D+00  0.0000000000000D+00
   289  2.8800000000000D+00  0.0000000000000D+00  0.0000000000000D+00
   290  2.8900000000000D+00  0.0000000000000D+00  0.0000000000000D+00
   291  2.9000000000000D+00  0.0000000000000D+00  0.0000000000000D+00
   292  2.9100000000000D+00  0.0000000000000D+00  0.0000000000000D+00
   293  2.9200000000000D+00  0.0000000000000D+00  0.0000000000000D+00
   294  2.9300000000000D+00  0.0000000000000D+00  0.0000000000000D+00
   295  2.9400000000000D+00  0.0000000000000D+00  0.0000000000000D+00
   296  2.9500000000000D+00  0.0000000000000D+00  0.0000000000000D+00
   297  2.9600000000000D+00  0.0000000000000D+00  0.0000000000000D+00
   298  2.9700000000000D+00  0.0000000000000D+00  0.0000000000000D+00
   299  2.9800000000000D+00  0.0000000000000D+00  0.0000000000000D+00
   300  2.9900000000000D+00  0.0000000000000D+00  0.0000000000000D+00
   301  3.0000000000000D+00  0.0000000000000D+00  0.0000000000000D+00
   302  3.0100000000000D+00  0.0000000000000D+00  0.0000000000000D+00
   303  3.0200000000000D+00  0.0000000000000D+00  0.0000000000000D+00
   304  3.0300000000000D+00  0.0000000000000D+00  0.0000000000000D+00
   305  3.0400000000000D+00  0.0000000000000D+00  0.0000000000000D+00
   306  3.0500000000000D+00  0.0000000000000D+00  0.0000000000000D+00
   307  3.0600000000000D+00  0.0000000000000D+00  0.0000000000000D+00
   308  3.0700000000000D+00  0.0000000000000D+00  0.0000000000000D+00
   309  3.0800000000000D+00  0.0000000000000D+00  0.0000000000000D+00
   310  3.0900000000000D+00  0.0000000000000D+00  0.0000000000000D+00
   311  3.1000000000000D+00  0.0000000000000D+00  0.0000000000000D+00
   312  3.1100000000000D+00  0.0000000000000D+00  0.0000000000000D+00
   313  3.1200000000000D+00  0.0000000000000D+00  0.0000000000000D+00
   314  3.1300000000000D+00  0.0000000000000D+00  0.0000000000000D+00
   315  3.1400000000000D+00  0.0000000000000D+00  0.0000000000000D+00
   316  3.1500000000000D+00  0.0000000000000D+00  0.0000000000000D+00
   317  3.1600000000000D+00  0.0000000000000D+00  0.0000000000000D+00
   318  3.1700000000000D+00  0.0000000000000D+00  0.0000000000000D+00
   319  3.1800000000000D+00  0.0000000000000D+00  0.0000000000000D+00
   320  3.1900000000000D+00  0.0000000000000D+00  0.0000000000000D+00
   321  3.2000000000000D+00  0.0000000000000D+00  0.0000000000000D+00
   322  3.2100000000000D+00  0.0000000000000D+00  0.0000000000000D+00
   323  3.2200000000000D+00  0.0000000000000D+00  0.0000000000000D+00
   324  3.2300000000000D+00  0.0000000000000D+00  0.0000000000000D+00
   325  3.2400000000000D+00  0.0000000000000D+00  0.0000000000000D+00
   326  3.2500000000000D+00  0.0000000000000D+00  0.0000000000000D+00
   327  3.2600000000000D+00  0.0000000000000D+00  0.0000000000000D+00
   328  3.2700000000000D+00  0.0000000000000D+00  0.0000000000000D+00
   329  3.2800000000000D+00  0.0000000000000D+00  0.0000000000000D+00
   330  3.2900000000000D+00  0.0000000000000D+00  0.0000000000000D+00
   331  3.3000000000000D+00  0.0000000000000D+00  0.0000000000000D+00
   332  3.3100000000000D+00  0.0000000000000D+00  0.0000000000000D+00
   333  3.3200000000000D+00  0.0000000000000D+00  0.0000000000000D+00
   334  3.3300000000000D+00  0.0000000000000D+00  0.0000000000000D+00
   335  3.3400000000000D+00  0.0000000000000D+00  0.0000000000000D+00
   336  3.3500000000000D+00  0.0000000000000D+00  0.0000000000000D+00
   337  3.3600000000000D+00  0.0000000000000D+00  0.0000000000000D+00
   338  3.3700000000000D+00  0.0000000000000D+00  0.0000000000000D+00
   339  3.3800000000000D+00  0.0000000000000D+00  0.0000000000000D+00
   340  3.3900000000000D+00  0.0000000000000D+00  0.0000000000000D+00
   341  3.4000000000000D+00  0.0000000000000D+00  0.0000000000000D+00
   342  3.4100000000000D+00  0.0000000000000D+00  0.0000000000000D+00
   343  3.4200000000000D+00  0.0000000000000D+00  0.0000000000000D+00
   344  3.4300000000000D+00  0.0000000000000D+00  0.0000000000000D+00
   345  3.4400000000000D+00  0.0000000000000D+00  0.0000000000000D+00
   346  3.4500000000000D+00  0.0000000000000D+00  0.0000000000000D+00
   347  3.4600000000000D+00  0.0000000000000D+00  0.0000000000000D+00
   348  3.4700000000000D+00  0.0000000000000D+00  0.0000000000000D+00
   349  3.4800000000000D+00  0.0000000000000D+00  0.0000000000000D+00
   350  3.4900000000000D+00  0.0000000000000D+00  0.0000000000000D+00
   351  3.5000000000000D+00  0.0000000000000D+00  0.0000000000000D+00
   352  3.5100000000000D+00  0.0000000000000D+00  0.0000000000000D+00
   353  3.5200000000000D+00  0.0000000000000D+00  0.0000000000000D+00
   354  3.5300000000000D+00  0.0000000000000D+00  0.0000000000000D+00
   355  3.5400000000000D+00  0.0000000000000D+00  0.0000000000000D+00
   356  3.5500000000000D+00  0.0000000000000D+00  0.0000000000000D+00
   357  3.5600000000000D+00  0.0000000000000D+00  0.0000000000000D+00
   358  3.5700000000000D+00  0.0000000000000D+00  0.0000000000000D+00
   359  3.5800000000000D+00  0.0000000000000D+00  0.0000000000000D+00
   360  3.5900000000000D+00  0.0000000000000D+00  0.0000000000000D+00
   361  3.6000000000000D+00  0.0000000000000D+00  0.0000000000000D+00
   362  3.6100000000000D+00  0.0000000000000D+00  0.0000000000000D+00
   363  3.6200000000000D+00  0.0000000000000D+00  0.0000000000000D+00
   364  3.6300000000000D+00  0.0000000000000D+00  0.0000000000000D+00
   365  3.6400000000000D+00  0.0000000000000D+00  0.0000000000000D+00
   366  3.6500000000000D+00  0.0000000000000D+00  0.0000000000000D+00
   367  3.6600000000000D+00  0.0000000000000D+00  0.0000000000000D+00
   368  3.6700000000000D+00  0.0000000000000D+00  0.0000000000000D+00
   369  3.6800000000000D+00  0.0000000000000D+00  0.0000000000000D+00
   370  3.6900000000000D+00  0.0000000000000D+00  0.0000000000000D+00
   371  3.7000000000000D+00  0.0000000000000D+00  0.0000000000000D+00
   372  3.7100000000000D+00  0.0000000000000D+00  0.0000000000000D+00
   373  3.7200000000000D+00  0.0000000000000D+00  0.0000000000000D+00
   374  3.7300000000000D+00  0.0000000000000D+00  0.0000000000000D+00
   375  3.7400000000000D+00  0.0000000000000D+00  0.0000000000000D+00
   376  3.7500000000000D+00  0.0000000000000D+00  0.0000000000000D+00
   377  3.7600000000000D+00  0.0000000000000D+00  0.0000000000000D+00
   378  3.7700000000000D+00  0.0000000000000D+00  0.0000000000000D+00
   379  3.7800000000000D+00  0.0000000000000D+00  0.0000000000000D+00
   380  3.7900000000000D+00  0.0000000000000D+00  0.0000000000000D+00
   381  3.8000000000000D+00  0.0000000000000D+00  0.0000000000000D+00
   382  3.8100000000000D+00  0.0000000000000D+00  0.0000000000000D+00
   383  3.8200000000000D+00  0.0000000000000D+00  0.0000000000000D+00
   384  3.8300000000000D+00  0.0000000000000D+00  0.0000000000000D+00
   385  3.8400000000000D+00  0.0000000000000D+00  0.0000000000000D+00
   386  3.8500000000000D+00  0.0000000000000D+00  0.0000000000000D+00
   387  3.8600000000000D+00  0.0000000000000D+00  0.0000000000000D+00
   388  3.8700000000000D+00  0.0000000000000D+00  0.0000000000000D+00
   389  3.8800000000000D+00  0.0000000000000D+00  0.0000000000000D+00
   390  3.8900000000000D+00  0.0000000000000D+00  0.0000000000000D+00
   391  3.9000000000000D+00  0.0000000000000D+00  0.0000000000000D+00
   392  3.9100000000000D+00  0.0000000000000D+00  0.0000000000000D+00
   393  3.9200000000000D+00  0.0000000000000D+00  0.0000000000000D+00
   394  3.9300000000000D+00  0.0000000000000D+00  0.0000000000000D+00
   395  3.9400000000000D+00  0.0000000000000D+00  0.0000000000000D+00
   396  3.9500000000000D+00  0.0000000000000D+00  0.0000000000000D+00
   397  3.9600000000000D+00  0.0000000000000D+00  0.0000000000000D+00
   398  3.9700000000000D+00  0.0000000000000D+00  0.0000000000000D+00
   399  3.9800000000000D+00  0.0000000000000D+00  0.0000000000000D+00
   400  3.9900000000000D+00  0.0000000000000D+00  0.0000000000000D+00
   401  4.0000000000000D+00  0.0000000000000D+00  0.0000000000000D+00
   402  4.0100000000000D+00  0.0000000000000D+00  0.0000000000000D+00
   403  4.0200000000000D+00  0.0000000000000D+00  0.0000000000000D+00
   404  4.0300000000000D+00  0.0000000000000D+00  0.0000000000000D+00
   405  4.0400000000000D+00  0.0000000000000D+00  0.0000000000000D+00
   406  4.0500000000000D+00  0.0000000000000D+00  0.0000000000000D+00
   407  4.0600000000000D+00  0.0000000000000D+00  0.0000000000000D+00
   408  4.0700000000000D+00  0.0000000000000D+00  0.0000000000000D+00
   409  4.0800000000000D+00  0.0000000000000D+00  0.0000000000000D+00
   410  4.0900000000000D+00  0.0000000000000D+00  0.0000000000000D+00
   411  4.1000000000000D+00  0.0000000000000D+00  0.0000000000000D+00
   412  4.1100000000000D+00  0.0000000000000D+00  0.0000000000000D+00
   413  4.1200000000000D+00  0.0000000000000D+00  0.0000000000000D+00
   414  4.1300000000000D+00  0.0000000000000D+00  0.0000000000000D+00
   415  4.1400000000000D+00  0.0000000000000D+00  0.0000000000000D+00
   416  4.1500000000000D+00  0.0000000000000D+00  0.0000000000000D+00
   417  4.1600000000000D+00  0.0000000000000D+00  0.0000000000000D+00
   418  4.1700000000000D+00  0.0000000000000D+00  0.0000000000000D+00
   419  4.1800000000000D+00  0.0000000000000D+00  0.0000000000000D+00
   420  4.1900000000000D+00  0.0000000000000D+00  0.0000000000000D+00
   421  4.2000000000000D+00  0.0000000000000D+00  0.0000000000000D+00
   422  4.2100000000000D+00  0.0000000000000D+00  0.0000000000000D+00