Ta    ONCVPSP-3.3.0  r_core=   2.30810   1.86211   2.07314   1.61376
     73.0000     27.0000      220117    zatom,zion,pspd
     8      11   3     4   600     0    pspcod,pspxc,lmax,lloc,mmax,r2well
  5.99000000  0.00000000  0.00000000    rchrg fchrg qchrg
     2     2     2     2     0    nproj
     1     1           extension_switch
   0                         4.5794937547314D+00  9.2648567313611D-01
     1  0.0000000000000D+00  4.7201131891939D-13 -3.4571703139141D-12
     2  1.0000000000000D-02  4.5695110216317D-02 -1.8073409611504D-03
     3  2.0000000000000D-02  9.1339140372586D-02 -3.6046978668592D-03
     4  3.0000000000000D-02  1.3688106616893D-01 -5.3820563742302D-03
     5  4.0000000000000D-02  1.8226997480268D-01 -7.1293418013674D-03
     6  5.0000000000000D-02  2.2745512065902D-01 -8.8363895467835D-03
     7  6.0000000000000D-02  2.7238598093173D-01 -1.0492916213078D-02
     8  7.0000000000000D-02  3.1701231115025D-01 -1.2088491665619D-02
     9  8.0000000000000D-02  3.6128420058870D-01 -1.3612512253521D-02
    10  9.0000000000000D-02  4.0515212753189D-01 -1.5054175415906D-02
    11  1.0000000000000D-01  4.4856701437292D-01 -1.6402455891289D-02
    12  1.1000000000000D-01  4.9148028251574D-01 -1.7646083741989D-02
    13  1.2000000000000D-01  5.3384390705536D-01 -1.8773524398590D-02
    14  1.3000000000000D-01  5.7561047120737D-01 -1.9772960921916D-02
    15  1.4000000000000D-01  6.1673322045707D-01 -2.0632278671481D-02
    16  1.5000000000000D-01  6.5716611639742D-01 -2.1339052560216D-02
    17  1.6000000000000D-01  6.9686389022341D-01 -2.1880537065185D-02
    18  1.7000000000000D-01  7.3578209584921D-01 -2.2243659153320D-02
    19  1.8000000000000D-01  7.7387716261252D-01 -2.2415014269593D-02
    20  1.9000000000000D-01  8.1110644752913D-01 -2.2380865522924D-02
    21  2.0000000000000D-01  8.4742828705852D-01 -2.2127146192099D-02
    22  2.1000000000000D-01  8.8280204833976D-01 -2.1639465660428D-02
    23  2.2000000000000D-01  9.1718817985463D-01 -2.0903118873641D-02
    24  2.3000000000000D-01  9.5054826147290D-01 -1.9903099400649D-02
    25  2.4000000000000D-01  9.8284505383251D-01 -1.8624116161373D-02
    26  2.5000000000000D-01  1.0140425470050D+00 -1.7050613869961D-02
    27  2.6000000000000D-01  1.0441060083942D+00 -1.5166797225155D-02
    28  2.7000000000000D-01  1.0730020298141D+00 -1.2956658862744D-02
    29  2.8000000000000D-01  1.1006985736887D+00 -1.0404011067696D-02
    30  2.9000000000000D-01  1.1271650183144D+00 -7.4925212259364D-03
    31  3.0000000000000D-01  1.1523722021235D+00 -4.2057509776406D-03
    32  3.1000000000000D-01  1.1762924668835D+00 -5.2719901587924D-04
    33  3.2000000000000D-01  1.1988996997664D+00  3.5596525441695D-03
    34  3.3000000000000D-01  1.2201693742169D+00  8.0712883186062D-03
    35  3.4000000000000D-01  1.2400785895479D+00  1.3024106442688D-02
    36  3.5000000000000D-01  1.2586061091894D+00  1.8434362123643D-02
    37  3.6000000000000D-01  1.2757323975120D+00  2.4318108107471D-02
    38  3.7000000000000D-01  1.2914396551474D+00  3.0691132227060D-02
    39  3.8000000000000D-01  1.3057118527223D+00  3.7568892217349D-02
    40  3.9000000000000D-01  1.3185347629233D+00  4.4966448000911D-02
    41  4.0000000000000D-01  1.3298959908060D+00  5.2898391665045D-02
    42  4.1000000000000D-01  1.3397850022610D+00  6.1378775368491D-02
    43  4.2000000000000D-01  1.3481931505466D+00  7.0421037432328D-02
    44  4.3000000000000D-01  1.3551137007991D+00  8.0037926885705D-02
    45  4.4000000000000D-01  1.3605418524258D+00  9.0241426752152D-02
    46  4.5000000000000D-01  1.3644747592904D+00  1.0104267637679D-01
    47  4.6000000000000D-01  1.3669115475954D+00  1.1245189310822D-01
    48  4.7000000000000D-01  1.3678533313677D+00  1.2447829366166D-01
    49  4.8000000000000D-01  1.3673032254530D+00  1.3713001550145D-01
    50  4.9000000000000D-01  1.3652663559254D+00  1.5041403859155D-01
    51  5.0000000000000D-01  1.3617498678184D+00  1.6433610787213D-01
    52  5.1000000000000D-01  1.3567629300849D+00  1.7890065682823D-01
    53  5.2000000000000D-01  1.3503167376961D+00  1.9411073252342D-01
    54  5.3000000000000D-01  1.3424245107887D+00  2.0996792247673D-01
    55  5.4000000000000D-01  1.3331014907753D+00  2.2647228376477D-01
    56  5.5000000000000D-01  1.3223649333329D+00  2.4362227473383D-01
    57  5.6000000000000D-01  1.3102340981889D+00  2.6141468970695D-01
    58  5.7000000000000D-01  1.2967302356281D+00  2.7984459707059D-01
    59  5.8000000000000D-01  1.2818765696477D+00  2.9890528112287D-01
    60  5.9000000000000D-01  1.2656982776912D+00  3.1858818806085D-01
    61  6.0000000000000D-01  1.2482224669011D+00  3.3888287647893D-01
    62  6.1000000000000D-01  1.2294781468304D+00  3.5977697274195D-01
    63  6.2000000000000D-01  1.2094961985642D+00  3.8125613158780D-01
    64  6.3000000000000D-01  1.1883093402075D+00  4.0330400230227D-01
    65  6.4000000000000D-01  1.1659520887021D+00  4.2590220079628D-01
    66  6.5000000000000D-01  1.1424607179450D+00  4.4903028790032D-01
    67  6.6000000000000D-01  1.1178732131874D+00  4.7266575417438D-01
    68  6.7000000000000D-01  1.0922292217046D+00  4.9678401151290D-01
    69  6.8000000000000D-01  1.0655699997330D+00  5.2135839180435D-01
    70  6.9000000000000D-01  1.0379383556845D+00  5.4636015288279D-01
    71  7.0000000000000D-01  1.0093785896557D+00  5.7175849198536D-01
    72  7.1000000000000D-01  9.7993642926079D-01  5.9752056690442D-01
    73  7.2000000000000D-01  9.4965896182956D-01  6.2361152499635D-01
    74  7.3000000000000D-01  9.1859456302114D-01  6.4999454018102D-01
    75  7.4000000000000D-01  8.8679282191807D-01  6.7663085803619D-01
    76  7.5000000000000D-01  8.5430446267579D-01  7.0347984906075D-01
    77  7.6000000000000D-01  8.2118126281591D-01  7.3049907014847D-01
    78  7.7000000000000D-01  7.8747596826375D-01  7.5764433428116D-01
    79  7.8000000000000D-01  7.5324220524354D-01  7.8486978841636D-01
    80  7.9000000000000D-01  7.1853438915744D-01  8.1212799950981D-01
    81  8.0000000000000D-01  6.8340763058734D-01  8.3937004857802D-01
    82  8.1000000000000D-01  6.4791763857142D-01  8.6654563266981D-01
    83  8.2000000000000D-01  6.1212062132030D-01  8.9360317458042D-01
    84  8.3000000000000D-01  5.7607318455014D-01  9.2048994010431D-01
    85  8.4000000000000D-01  5.3983222762296D-01  9.4715216258731D-01
    86  8.5000000000000D-01  5.0345483769649D-01  9.7353517450158D-01
    87  8.6000000000000D-01  4.6699818209813D-01  9.9958354573141D-01
    88  8.7000000000000D-01  4.3051939914927D-01  1.0252412282218D+00
    89  8.8000000000000D-01  3.9407548767751D-01  1.0504517066065D+00
    90  8.9000000000000D-01  3.5772319546522D-01  1.0751581543995D+00
    91  9.0000000000000D-01  3.2151890689318D-01  1.0993035952973D+00
    92  9.1000000000000D-01  2.8551853004778D-01  1.1228310691110D+00
    93  9.2000000000000D-01  2.4977738356932D-01  1.1456838018144D+00
    94  9.3000000000000D-01  2.1435008352733D-01  1.1678053791632D+00
    95  9.4000000000000D-01  1.7929043061649D-01  1.1891399233166D+00
    96  9.5000000000000D-01  1.4465129797336D-01  1.2096322718630D+00
    97  9.6000000000000D-01  1.1048451992015D-01  1.2292281586284D+00
    98  9.7000000000000D-01  7.6840781946785D-02  1.2478743956257D+00
    99  9.8000000000000D-01  4.3769512246315D-02  1.2655190554801D+00
   100  9.9000000000000D-01  1.1318775121852D-02  1.2821116536518D+00
   101  1.0000000000000D+00 -2.0464833414860D-02  1.2976033297598D+00
   102  1.0100000000000D+00 -5.1536287532446D-02  1.3119470272990D+00
   103  1.0200000000000D+00 -8.1852230635879D-02  1.3250976710342D+00
   104  1.0300000000000D+00 -1.1137107127033D-01  1.3370123413450D+00
   105  1.0400000000000D+00 -1.4005307555650D-01  1.3476504447954D+00
   106  1.0500000000000D+00 -1.6786045584481D-01  1.3569738801983D+00
   107  1.0600000000000D+00 -1.9475745528102D-01  1.3649471994464D+00
   108  1.0700000000000D+00 -2.2071042798224D-01  1.3715377623904D+00
   109  1.0800000000000D+00 -2.4568791452916D-01  1.3767158850473D+00
   110  1.0900000000000D+00 -2.6966071249013D-01  1.3804549804388D+00
   111  1.1000000000000D+00 -2.9260194170166D-01  1.3827316913703D+00
   112  1.1100000000000D+00 -3.1448710404225D-01  1.3835260144802D+00
   113  1.1200000000000D+00 -3.3529413744738D-01  1.3828214149102D+00
   114  1.1300000000000D+00 -3.5500346392770D-01  1.3806049309674D+00
   115  1.1400000000000D+00 -3.7359803136740D-01  1.3768672681811D+00
   116  1.1500000000000D+00 -3.9106334889563D-01  1.3716028821830D+00
   117  1.1600000000000D+00 -4.0738751563920D-01  1.3648100498723D+00
   118  1.1700000000000D+00 -4.2256124268301D-01  1.3564909283606D+00
   119  1.1800000000000D+00 -4.3657786808427D-01  1.3466516012319D+00
   120  1.1900000000000D+00 -4.4943336480789D-01  1.3353021116976D+00
   121  1.2000000000000D+00 -4.6112634146296D-01  1.3224564822512D+00
   122  1.2100000000000D+00 -4.7165803575049D-01  1.3081327204911D+00
   123  1.2200000000000D+00 -4.8103230055143D-01  1.2923528108208D+00
   124  1.2300000000000D+00 -4.8925558260335D-01  1.2751426917785D+00
   125  1.2400000000000D+00 -4.9633689373695D-01  1.2565322187950D+00
   126  1.2500000000000D+00 -5.0228777467381D-01  1.2365551122488D+00
   127  1.2600000000000D+00 -5.0712225140473D-01  1.2152488907247D+00
   128  1.2700000000000D+00 -5.1085678418456D-01  1.1926547894208D+00
   129  1.2800000000000D+00 -5.1351020922140D-01  1.1688176637426D+00
   130  1.2900000000000D+00 -5.1510367314969D-01  1.1437858781509D+00
   131  1.3000000000000D+00 -5.1566056039182D-01  1.1176111803637D+00
   132  1.3100000000000D+00 -5.1520641356257D-01  1.0903485611272D+00
   133  1.3200000000000D+00 -5.1376884707163D-01  1.0620560997745D+00
   134  1.3300000000000D+00 -5.1137745410138D-01  1.0327947958401D+00
   135  1.3400000000000D+00 -5.0806370718615D-01  1.0026283871162D+00
   136  1.3500000000000D+00 -5.0386085260615D-01  9.7162315450486D-01
   137  1.3600000000000D+00 -4.9880379884946D-01  9.3984771411524D-01
   138  1.3700000000000D+00 -4.9292899942992D-01  9.0737279714153D-01
   139  1.3800000000000D+00 -4.8627433032305D-01  8.7427101799135D-01
   140  1.3900000000000D+00 -4.7887896235534D-01  8.4061663131572D-01
   141  1.4000000000000D+00 -4.7078322886540D-01  8.0648527855070D-01
   142  1.4100000000000D+00 -4.6202848896859D-01  7.7195372461176D-01
   143  1.4200000000000D+00 -4.5265698680991D-01  7.3709958551839D-01
   144  1.4300000000000D+00 -4.4271170714865D-01  7.0200104762020D-01
   145  1.4400000000000D+00 -4.3223622768197D-01  6.6673657925999D-01
   146  1.4500000000000D+00 -4.2127456849557D-01  6.3138463566321D-01
   147  1.4600000000000D+00 -4.0987103904158D-01  5.9602335786946D-01
   148  1.4700000000000D+00 -3.9807008307354D-01  5.6073026661282D-01
   149  1.4800000000000D+00 -3.8591612193950D-01  5.2558195196712D-01
   150  1.4900000000000D+00 -3.7345339667686D-01  4.9065375970685D-01
   151  1.5000000000000D+00 -3.6072580932408D-01  4.5601947524625D-01
   152  1.5100000000000D+00 -3.4777676389046D-01  4.2175100609855D-01
   153  1.5200000000000D+00 -3.3464900740259D-01  3.8791806374997D-01
   154  1.5300000000000D+00 -3.2138447147412D-01  3.5458784589597D-01
   155  1.5400000000000D+00 -3.0802411479539D-01  3.2182471990804D-01
   156  1.5500000000000D+00 -2.9460776700410D-01  2.8968990850714D-01
   157  1.5600000000000D+00 -2.8117397372102D-01  2.5824117640821D-01
   158  1.5700000000000D+00 -2.6775984611588D-01  2.2753252917205D-01
   159  1.5800000000000D+00 -2.5440090565429D-01  1.9761389162883D-01
   160  1.5900000000000D+00 -2.4113095322078D-01  1.6853086367977D-01
   161  1.6000000000000D+00 -2.2798193804788D-01  1.4032447658472D-01
   162  1.6100000000000D+00 -2.1498369108330D-01  1.1303046161335D-01
   163  1.6200000000000D+00 -2.0216395486124D-01  8.6679553897863D-02
   164  1.6300000000000D+00 -1.8954861282146D-01  6.1298517649332D-02
   165  1.6400000000000D+00 -1.7716187415146D-01  3.6910903890006D-02
   166  1.6500000000000D+00 -1.6502660475906D-01  1.3538261658655D-02
   167  1.6600000000000D+00 -1.5316434195394D-01 -8.7997802659784D-03
   168  1.6700000000000D+00 -1.4159516272575D-01 -3.0085990841869D-02
   169  1.6800000000000D+00 -1.3033769280066D-01 -5.0305496828264D-02
   170  1.6900000000000D+00 -1.1940908944913D-01 -6.9445842702961D-02
   171  1.7000000000000D+00 -1.0882502408606D-01 -8.7497059095713D-02
   172  1.7100000000000D+00 -9.8599672489983D-02 -1.0445170779220D-01
   173  1.7200000000000D+00 -8.8745707376999D-02 -1.2030492352548D-01
   174  1.7300000000000D+00 -7.9274295671939D-02 -1.3505444380316D-01
   175  1.7400000000000D+00 -7.0195100077718D-02 -1.4870062843755D-01
   176  1.7500000000000D+00 -6.1516284810785D-02 -1.6124646906899D-01
   177  1.7600000000000D+00 -5.3244525616176D-02 -1.7269758840481D-01
   178  1.7700000000000D+00 -4.5385023921736D-02 -1.8306222949430D-01
   179  1.7800000000000D+00 -3.7941525171580D-02 -1.9235123493254D-01
   180  1.7900000000000D+00 -3.0916341225881D-02 -2.0057801624869D-01
   181  1.8000000000000D+00 -2.4310376762477D-02 -2.0775851362004D-01
   182  1.8100000000000D+00 -1.8123159624057D-02 -2.1391114603288D-01
   183  1.8200000000000D+00 -1.2352874919252D-02 -2.1905675233217D-01
   184  1.8300000000000D+00 -6.9964029001705D-03 -2.2321852309505D-01
   185  1.8400000000000D+00 -2.0493602849243D-03 -2.2642192410030D-01
   186  1.8500000000000D+00  2.4938548654701D-03 -2.2869461112391D-01
   187  1.8600000000000D+00  6.6400151763295D-03 -2.3006633713787D-01
   188  1.8700000000000D+00  1.0397012734416D-02 -2.3056885152099D-01
   189  1.8800000000000D+00  1.3773805099361D-02 -2.3023579243102D-01
   190  1.8900000000000D+00  1.6780358487183D-02 -2.2910257217304D-01
   191  1.9000000000000D+00  1.9427588496893D-02 -2.2720625643184D-01
   192  1.9100000000000D+00  2.1727298493001D-02 -2.2458543762145D-01
   193  1.9200000000000D+00  2.3692115873129D-02 -2.2128010288359D-01
   194  1.9300000000000D+00  2.5335426485590D-02 -2.1733149735160D-01
   195  1.9400000000000D+00  2.6671307328073D-02 -2.1278198297357D-01
   196  1.9500000000000D+00  2.7714457870664D-02 -2.0767489370704D-01
   197  1.9600000000000D+00  2.8480130122554D-02 -2.0205438734008D-01
   198  1.9700000000000D+00  2.8984057756305D-02 -1.9596529469133D-01
   199  1.9800000000000D+00  2.9242384489090D-02 -1.8945296663277D-01
   200  1.9900000000000D+00  2.9271591957214D-02 -1.8256311949749D-01
   201  2.0000000000000D+00  2.9088427325027D-02 -1.7534167943319D-01
   202  2.0100000000000D+00  2.8709830885962D-02 -1.6783462628994D-01
   203  2.0200000000000D+00  2.8152863806584D-02 -1.6008783742325D-01
   204  2.0300000000000D+00  2.7434636387154D-02 -1.5214693224580D-01
   205  2.0400000000000D+00  2.6572236897263D-02 -1.4405711770736D-01
   206  2.0500000000000D+00  2.5582661343693D-02 -1.3586303551064D-01
   207  2.0600000000000D+00  2.4482744350783D-02 -1.2760861149544D-01
   208  2.0700000000000D+00  2.3289091264229D-02 -1.1933690747261D-01
   209  2.0800000000000D+00  2.2018011934558D-02 -1.1108997653874D-01
   210  2.0900000000000D+00  2.0685456050576D-02 -1.0290872162520D-01
   211  2.1000000000000D+00  1.9306950527103D-02 -9.4832758423399D-02
   212  2.1100000000000D+00  1.7897538972909D-02 -8.6900282776492D-02
   213  2.1200000000000D+00  1.6471723344606D-02 -7.9147942802580D-02
   214  2.1300000000000D+00  1.5043408286988D-02 -7.1610716893123D-02
   215  2.1400000000000D+00  1.3625847852234D-02 -6.4321796925866D-02
   216  2.1500000000000D+00  1.2231595198651D-02 -5.7312478068082D-02
   217  2.1600000000000D+00  1.0872455209356D-02 -5.0612055060330D-02
   218  2.1700000000000D+00  9.5594400026395D-03 -4.4247724936988D-02
   219  2.1800000000000D+00  8.3027279946126D-03 -3.8244497713801D-02
   220  2.1900000000000D+00  7.1116259700305D-03 -3.2625113812949D-02
   221  2.2000000000000D+00  5.9945347663050D-03 -2.7409969638125D-02
   222  2.2100000000000D+00  4.9589186206018D-03 -2.2617051434254D-02
   223  2.2200000000000D+00  4.0112777727647D-03 -1.8261876493909D-02
   224  2.2300000000000D+00  3.1573762640644D-03 -1.4358626266322D-02
   225  2.2400000000000D+00  2.4017403941416D-03 -1.0917835188629D-02
   226  2.2500000000000D+00  1.7466669401333D-03 -7.9417608059647D-03
   227  2.2600000000000D+00  1.1924966292379D-03 -5.4259797506216D-03
   228  2.2700000000000D+00  7.4505787464427D-04 -3.3935291748585D-03
   229  2.2800000000000D+00  4.0980750848283D-04 -1.8679672214365D-03
   230  2.2900000000000D+00  1.8919589640135D-04 -8.6036101247118D-04
   231  2.3000000000000D+00  6.2321638611351D-05 -2.7843755301812D-04
   232  2.3100000000000D+00  4.4032041900740D-06 -1.2392856346899D-05
   233  2.3200000000000D+00 -1.1505728155690D-05  5.8129731931402D-05
   234  2.3300000000000D+00 -6.0047810038973D-06  2.9436436419468D-05
   235  2.3400000000000D+00  2.4551161717440D-06 -1.1810262585429D-05
   236  2.3500000000000D+00  4.5285926281174D-06 -2.1668379848454D-05
   237  2.3600000000000D+00  1.7033751277521D-06 -8.1265246790843D-06
   238  2.3700000000000D+00 -5.4298914406885D-07  2.6232932737453D-06
   239  2.3800000000000D+00 -7.6207699549877D-07  3.6694629700244D-06
   240  2.3900000000000D+00 -1.8246893189779D-07  8.7644500657424D-07
   241  2.4000000000000D+00 -2.6651153934429D-08  1.0371355449200D-07
   242  2.4100000000000D+00 -2.9680512674986D-08  1.1550237097580D-07
   243  2.4200000000000D+00 -3.0330348409639D-09  1.1803122109774D-08
   244  2.4300000000000D+00  0.0000000000000D+00  0.0000000000000D+00
   245  2.4400000000000D+00  0.0000000000000D+00  0.0000000000000D+00
   246  2.4500000000000D+00  0.0000000000000D+00  0.0000000000000D+00
   247  2.4600000000000D+00  0.0000000000000D+00  0.0000000000000D+00
   248  2.4700000000000D+00  0.0000000000000D+00  0.0000000000000D+00
   249  2.4800000000000D+00  0.0000000000000D+00  0.0000000000000D+00
   250  2.4900000000000D+00  0.0000000000000D+00  0.0000000000000D+00
   251  2.5000000000000D+00  0.0000000000000D+00  0.0000000000000D+00
   252  2.5100000000000D+00  0.0000000000000D+00  0.0000000000000D+00
   253  2.5200000000000D+00  0.0000000000000D+00  0.0000000000000D+00
   254  2.5300000000000D+00  0.0000000000000D+00  0.0000000000000D+00
   255  2.5400000000000D+00  0.0000000000000D+00  0.0000000000000D+00
   256  2.5500000000000D+00  0.0000000000000D+00  0.0000000000000D+00
   257  2.5600000000000D+00  0.0000000000000D+00  0.0000000000000D+00
   258  2.5700000000000D+00  0.0000000000000D+00  0.0000000000000D+00
   259  2.5800000000000D+00  0.0000000000000D+00  0.0000000000000D+00
   260  2.5900000000000D+00  0.0000000000000D+00  0.0000000000000D+00
   261  2.6000000000000D+00  0.0000000000000D+00  0.0000000000000D+00
   262  2.6100000000000D+00  0.0000000000000D+00  0.0000000000000D+00
   263  2.6200000000000D+00  0.0000000000000D+00  0.0000000000000D+00
   264  2.6300000000000D+00  0.0000000000000D+00  0.0000000000000D+00
   265  2.6400000000000D+00  0.0000000000000D+00  0.0000000000000D+00
   266  2.6500000000000D+00  0.0000000000000D+00  0.0000000000000D+00
   267  2.6600000000000D+00  0.0000000000000D+00  0.0000000000000D+00
   268  2.6700000000000D+00  0.0000000000000D+00  0.0000000000000D+00
   269  2.6800000000000D+00  0.0000000000000D+00  0.0000000000000D+00
   270  2.6900000000000D+00  0.0000000000000D+00  0.0000000000000D+00
   271  2.7000000000000D+00  0.0000000000000D+00  0.0000000000000D+00
   272  2.7100000000000D+00  0.0000000000000D+00  0.0000000000000D+00
   273  2.7200000000000D+00  0.0000000000000D+00  0.0000000000000D+00
   274  2.7300000000000D+00  0.0000000000000D+00  0.0000000000000D+00
   275  2.7400000000000D+00  0.0000000000000D+00  0.0000000000000D+00
   276  2.7500000000000D+00  0.0000000000000D+00  0.0000000000000D+00
   277  2.7600000000000D+00  0.0000000000000D+00  0.0000000000000D+00
   278  2.7700000000000D+00  0.0000000000000D+00  0.0000000000000D+00
   279  2.7800000000000D+00  0.0000000000000D+00  0.0000000000000D+00
   280  2.7900000000000D+00  0.0000000000000D+00  0.0000000000000D+00
   281  2.8000000000000D+00  0.0000000000000D+00  0.0000000000000D+00
   282  2.8100000000000D+00  0.0000000000000D+00  0.0000000000000D+00
   283  2.8200000000000D+00  0.0000000000000D+00  0.0000000000000D+00
   284  2.8300000000000D+00  0.0000000000000D+00  0.0000000000000D+00
   285  2.8400000000000D+00  0.0000000000000D+00  0.0000000000000D+00
   286  2.8500000000000D+00  0.0000000000000D+00  0.0000000000000D+00
   287  2.8600000000000D+00  0.0000000000000D+00  0.0000000000000D+00
   288  2.8700000000000D+00  0.0000000000000D+00  0.0000000000000D+00
   289  2.8800000000000D+00  0.0000000000000D+00  0.0000000000000D+00
   290  2.8900000000000D+00  0.0000000000000D+00  0.0000000000000D+00
   291  2.9000000000000D+00  0.0000000000000D+00  0.0000000000000D+00
   292  2.9100000000000D+00  0.0000000000000D+00  0.0000000000000D+00
   293  2.9200000000000D+00  0.0000000000000D+00  0.0000000000000D+00
   294  2.9300000000000D+00  0.0000000000000D+00  0.0000000000000D+00
   295  2.9400000000000D+00  0.0000000000000D+00  0.0000000000000D+00
   296  2.9500000000000D+00  0.0000000000000D+00  0.0000000000000D+00
   297  2.9600000000000D+00  0.0000000000000D+00  0.0000000000000D+00
   298  2.9700000000000D+00  0.0000000000000D+00  0.0000000000000D+00
   299  2.9800000000000D+00  0.0000000000000D+00  0.0000000000000D+00
   300  2.9900000000000D+00  0.0000000000000D+00  0.0000000000000D+00
   301  3.0000000000000D+00  0.0000000000000D+00  0.0000000000000D+00
   302  3.0100000000000D+00  0.0000000000000D+00  0.0000000000000D+00
   303  3.0200000000000D+00  0.0000000000000D+00  0.0000000000000D+00
   304  3.0300000000000D+00  0.0000000000000D+00  0.0000000000000D+00
   305  3.0400000000000D+00  0.0000000000000D+00  0.0000000000000D+00
   306  3.0500000000000D+00  0.0000000000000D+00  0.0000000000000D+00
   307  3.0600000000000D+00  0.0000000000000D+00  0.0000000000000D+00
   308  3.0700000000000D+00  0.0000000000000D+00  0.0000000000000D+00
   309  3.0800000000000D+00  0.0000000000000D+00  0.0000000000000D+00
   310  3.0900000000000D+00  0.0000000000000D+00  0.0000000000000D+00
   311  3.1000000000000D+00  0.0000000000000D+00  0.0000000000000D+00
   312  3.1100000000000D+00  0.0000000000000D+00  0.0000000000000D+00
   313  3.1200000000000D+00  0.0000000000000D+00  0.0000000000000D+00
   314  3.1300000000000D+00  0.0000000000000D+00  0.0000000000000D+00
   315  3.1400000000000D+00  0.0000000000000D+00  0.0000000000000D+00
   316  3.1500000000000D+00  0.0000000000000D+00  0.0000000000000D+00
   317  3.1600000000000D+00  0.0000000000000D+00  0.0000000000000D+00
   318  3.1700000000000D+00  0.0000000000000D+00  0.0000000000000D+00
   319  3.1800000000000D+00  0.0000000000000D+00  0.0000000000000D+00
   320  3.1900000000000D+00  0.0000000000000D+00  0.0000000000000D+00
   321  3.2000000000000D+00  0.0000000000000D+00  0.0000000000000D+00
   322  3.2100000000000D+00  0.0000000000000D+00  0.0000000000000D+00
   323  3.2200000000000D+00  0.0000000000000D+00  0.0000000000000D+00
   324  3.2300000000000D+00  0.0000000000000D+00  0.0000000000000D+00
   325  3.2400000000000D+00  0.0000000000000D+00  0.0000000000000D+00
   326  3.2500000000000D+00  0.0000000000000D+00  0.0000000000000D+00
   327  3.2600000000000D+00  0.0000000000000D+00  0.0000000000000D+00
   328  3.2700000000000D+00  0.0000000000000D+00  0.0000000000000D+00
   329  3.2800000000000D+00  0.0000000000000D+00  0.0000000000000D+00
   330  3.2900000000000D+00  0.0000000000000D+00  0.0000000000000D+00
   331  3.3000000000000D+00  0.0000000000000D+00  0.0000000000000D+00
   332  3.3100000000000D+00  0.0000000000000D+00  0.0000000000000D+00
   333  3.3200000000000D+00  0.0000000000000D+00  0.0000000000000D+00
   334  3.3300000000000D+00  0.0000000000000D+00  0.0000000000000D+00
   335  3.3400000000000D+00  0.0000000000000D+00  0.0000000000000D+00
   336  3.3500000000000D+00  0.0000000000000D+00  0.0000000000000D+00
   337  3.3600000000000D+00  0.0000000000000D+00  0.0000000000000D+00
   338  3.3700000000000D+00  0.0000000000000D+00  0.0000000000000D+00
   339  3.3800000000000D+00  0.0000000000000D+00  0.0000000000000D+00
   340  3.3900000000000D+00  0.0000000000000D+00  0.0000000000000D+00
   341  3.4000000000000D+00  0.0000000000000D+00  0.0000000000000D+00
   342  3.4100000000000D+00  0.0000000000000D+00  0.0000000000000D+00
   343  3.4200000000000D+00  0.0000000000000D+00  0.0000000000000D+00
   344  3.4300000000000D+00  0.0000000000000D+00  0.0000000000000D+00
   345  3.4400000000000D+00  0.0000000000000D+00  0.0000000000000D+00
   346  3.4500000000000D+00  0.0000000000000D+00  0.0000000000000D+00
   347  3.4600000000000D+00  0.0000000000000D+00  0.0000000000000D+00
   348  3.4700000000000D+00  0.0000000000000D+00  0.0000000000000D+00
   349  3.4800000000000D+00  0.0000000000000D+00  0.0000000000000D+00
   350  3.4900000000000D+00  0.0000000000000D+00  0.0000000000000D+00
   351  3.5000000000000D+00  0.0000000000000D+00  0.0000000000000D+00
   352  3.5100000000000D+00  0.0000000000000D+00  0.0000000000000D+00
   353  3.5200000000000D+00  0.0000000000000D+00  0.0000000000000D+00
   354  3.5300000000000D+00  0.0000000000000D+00  0.0000000000000D+00
   355  3.5400000000000D+00  0.0000000000000D+00  0.0000000000000D+00
   356  3.5500000000000D+00  0.0000000000000D+00  0.0000000000000D+00
   357  3.5600000000000D+00  0.0000000000000D+00  0.0000000000000D+00
   358  3.5700000000000D+00  0.0000000000000D+00  0.0000000000000D+00
   359  3.5800000000000D+00  0.0000000000000D+00  0.0000000000000D+00
   360  3.5900000000000D+00  0.0000000000000D+00  0.0000000000000D+00
   361  3.6000000000000D+00  0.0000000000000D+00  0.0000000000000D+00
   362  3.6100000000000D+00  0.0000000000000D+00  0.0000000000000D+00
   363  3.6200000000000D+00  0.0000000000000D+00  0.0000000000000D+00
   364  3.6300000000000D+00  0.0000000000000D+00  0.0000000000000D+00
   365  3.6400000000000D+00  0.0000000000000D+00  0.0000000000000D+00
   366  3.6500000000000D+00  0.0000000000000D+00  0.0000000000000D+00
   367  3.6600000000000D+00  0.0000000000000D+00  0.0000000000000D+00
   368  3.6700000000000D+00  0.0000000000000D+00  0.0000000000000D+00
   369  3.6800000000000D+00  0.0000000000000D+00  0.0000000000000D+00
   370  3.6900000000000D+00  0.0000000000000D+00  0.0000000000000D+00
   371  3.7000000000000D+00  0.0000000000000D+00  0.0000000000000D+00
   372  3.7100000000000D+00  0.0000000000000D+00  0.0000000000000D+00
   373  3.7200000000000D+00  0.0000000000000D+00  0.0000000000000D+00
   374  3.7300000000000D+00  0.0000000000000D+00  0.0000000000000D+00
   375  3.7400000000000D+00  0.0000000000000D+00  0.0000000000000D+00
   376  3.7500000000000D+00  0.0000000000000D+00  0.0000000000000D+00
   377  3.7600000000000D+00  0.0000000000000D+00  0.0000000000000D+00
   378  3.7700000000000D+00  0.0000000000000D+00  0.0000000000000D+00
   379  3.7800000000000D+00  0.0000000000000D+00  0.0000000000000D+00
   380  3.7900000000000D+00  0.0000000000000D+00  0.0000000000000D+00
   381  3.8000000000000D+00  0.0000000000000D+00  0.0000000000000D+00
   382  3.8100000000000D+00  0.0000000000000D+00  0.0000000000000D+00
   383  3.8200000000000D+00  0.0000000000000D+00  0.0000000000000D+00
   384  3.8300000000000D+00  0.0000000000000D+00  0.0000000000000D+00
   385  3.8400000000000D+00  0.0000000000000D+00  0.0000000000000D+00
   386  3.8500000000000D+00  0.0000000000000D+00  0.0000000000000D+00
   387  3.8600000000000D+00  0.0000000000000D+00  0.0000000000000D+00
   388  3.8700000000000D+00  0.0000000000000D+00  0.0000000000000D+00
   389  3.8800000000000D+00  0.0000000000000D+00  0.0000000000000D+00
   390  3.8900000000000D+00  0.0000000000000D+00  0.0000000000000D+00
   391  3.9000000000000D+00  0.0000000000000D+00  0.0000000000000D+00
   392  3.9100000000000D+00  0.0000000000000D+00  0.0000000000000D+00
   393  3.9200000000000D+00  0.0000000000000D+00  0.0000000000000D+00
   394  3.9300000000000D+00  0.0000000000000D+00  0.0000000000000D+00
   395  3.9400000000000D+00  0.0000000000000D+00  0.0000000000000D+00
   396  3.9500000000000D+00  0.0000000000000D+00  0.0000000000000D+00
   397  3.9600000000000D+00  0.0000000000000D+00  0.0000000000000D+00
   398  3.9700000000000D+00  0.0000000000000D+00  0.0000000000000D+00
   399  3.9800000000000D+00  0.0000000000000D+00  0.0000000000000D+00
   400  3.9900000000000D+00  0.0000000000000D+00  0.0000000000000D+00
   401  4.0000000000000D+00  0.0000000000000D+00  0.0000000000000D+00
   402  4.0100000000000D+00  0.0000000000000D+00  0.0000000000000D+00
   403  4.0200000000000D+00  0.0000000000000D+00  0.0000000000000D+00
   404  4.0300000000000D+00  0.0000000000000D+00  0.0000000000000D+00
   405  4.0400000000000D+00  0.0000000000000D+00  0.0000000000000D+00
   406  4.0500000000000D+00  0.0000000000000D+00  0.0000000000000D+00
   407  4.0600000000000D+00  0.0000000000000D+00  0.0000000000000D+00
   408  4.0700000000000D+00  0.0000000000000D+00  0.0000000000000D+00
   409  4.0800000000000D+00  0.0000000000000D+00  0.0000000000000D+00
   410  4.0900000000000D+00  0.0000000000000D+00  0.0000000000000D+00
   411  4.1000000000000D+00  0.0000000000000D+00  0.0000000000000D+00
   412  4.1100000000000D+00  0.0000000000000D+00  0.0000000000000D+00
   413  4.1200000000000D+00  0.0000000000000D+00  0.0000000000000D+00
   414  4.1300000000000D+00  0.0000000000000D+00  0.0000000000000D+00
   415  4.1400000000000D+00  0.0000000000000D+00  0.0000000000000D+00
   416  4.1500000000000D+00  0.0000000000000D+00  0.0000000000000D+00
   417  4.1600000000000D+00  0.0000000000000D+00  0.0000000000000D+00
   418  4.1700000000000D+00  0.0000000000000D+00  0.0000000000000D+00
   419  4.1800000000000D+00  0.0000000000000D+00  0.0000000000000D+00
   420  4.1900000000000D+00  0.0000000000000D+00  0.0000000000000D+00
   421  4.2000000000000D+00  0.0000000000000D+00  0.0000000000000D+00
   422  4.2100000000000D+00  0.0000000000000D+00  0.0000000000000D+00