Ta    ONCVPSP-3.3.0  r_core=   1.71294   1.71294   1.71294   2.25368
     73.0000     13.0000      220117    zatom,zion,pspd
     8      11   3     4   600     0    pspcod,pspxc,lmax,lloc,mmax,r2well
  5.99000000  0.00000000  0.00000000    rchrg fchrg qchrg
     2     2     2     2     0    nproj
     1     1           extension_switch
   0                         1.1105323635049D+01  1.4070937650577D+00
     1  0.0000000000000D+00 -2.3605695176343D-10  5.7562421496016D-10
     2  1.0000000000000D-02  6.3939484585062D-02 -2.0634408322080D-02
     3  2.0000000000000D-02  1.2773685623726D-01 -4.1094805377407D-02
     4  3.0000000000000D-02  1.9125067507898D-01 -6.1208587127599D-02
     5  4.0000000000000D-02  2.5434084148448D-01 -8.0805949879348D-02
     6  5.0000000000000D-02  3.1686925161990D-01 -9.9721255325406D-02
     7  6.0000000000000D-02  3.7870043564906D-01 -1.1779435383958D-01
     8  7.0000000000000D-02  4.3970217310661D-01 -1.3487185279226D-01
     9  8.0000000000000D-02  4.9974608017615D-01 -1.5080831722871D-01
    10  9.0000000000000D-02  5.5870816390144D-01 -1.6546739096057D-01
    11  1.0000000000000D-01  6.1646933870052D-01 -1.7872282695511D-01
    12  1.1000000000000D-01  6.7291590094264D-01 -1.9045941685785D-01
    13  1.2000000000000D-01  7.2793995778144D-01 -2.0057381054256D-01
    14  1.3000000000000D-01  7.8143980691113D-01 -2.0897521773759D-01
    15  1.4000000000000D-01  8.3332026441999D-01 -2.1558598501728D-01
    16  1.5000000000000D-01  8.8349293845295D-01 -2.2034204275886D-01
    17  1.6000000000000D-01  9.3187644695511D-01 -2.2319321803512D-01
    18  1.7000000000000D-01  9.7839657834757D-01 -2.2410341082802D-01
    19  1.8000000000000D-01  1.0229863945768D+00 -2.2305063239230D-01
    20  1.9000000000000D-01  1.0655862765755D+00 -2.2002690605711D-01
    21  2.0000000000000D-01  1.1061439127682D+00 -2.1503803221238D-01
    22  2.1000000000000D-01  1.1446142318442D+00 -2.0810322066921D-01
    23  2.2000000000000D-01  1.1809592815962D+00 -1.9925459499567D-01
    24  2.3000000000000D-01  1.2151480561786D+00 -1.8853657479583D-01
    25  2.4000000000000D-01  1.2471562746735D+00 -1.7600514320556D-01
    26  2.5000000000000D-01  1.2769661143497D+00 -1.6172700811127D-01
    27  2.6000000000000D-01  1.3045659024672D+00 -1.4577866674186D-01
    28  2.7000000000000D-01  1.3299497709029D+00 -1.2824538432946D-01
    29  2.8000000000000D-01  1.3531172782469D+00 -1.0922009846811D-01
    30  2.9000000000000D-01  1.3740730043508D+00 -8.8802261611862D-02
    31  3.0000000000000D-01  1.3928261225783D+00 -6.7096634835153D-02
    32  3.1000000000000D-01  1.4093899552259D+00 -4.4212046521301D-02
    33  3.2000000000000D-01  1.4237815177382D+00 -2.0260130042764D-02
    34  3.3000000000000D-01  1.4360210574354D+00  4.6459452554543D-03
    35  3.4000000000000D-01  1.4461315925027D+00  3.0392735363741D-02
    36  3.5000000000000D-01  1.4541384569596D+00  5.6867760863052D-02
    37  3.6000000000000D-01  1.4600688572280D+00  8.3960710000546D-02
    38  3.7000000000000D-01  1.4639514457631D+00  1.1156459183072D-01
    39  3.8000000000000D-01  1.4658159169857D+00  1.3957682619066D-01
    40  3.9000000000000D-01  1.4656926304737D+00  1.6790025794895D-01
    41  4.0000000000000D-01  1.4636122660353D+00  1.9644408377952D-01
    42  4.1000000000000D-01  1.4596055148887D+00  2.2512468065694D-01
    43  4.2000000000000D-01  1.4537028107337D+00  2.5386632634002D-01
    44  4.3000000000000D-01  1.4459341040097D+00  2.8260180329388D-01
    45  4.4000000000000D-01  1.4363286821070D+00  3.1127287878730D-01
    46  4.5000000000000D-01  1.4249150377284D+00  3.3983065527728D-01
    47  4.6000000000000D-01  1.4117207870099D+00  3.6823578664432D-01
    48  4.7000000000000D-01  1.3967726383841D+00  3.9645855735263D-01
    49  4.8000000000000D-01  1.3800964125389D+00  4.2447882316703D-01
    50  4.9000000000000D-01  1.3617171131774D+00  4.5228581364222D-01
    51  5.0000000000000D-01  1.3416590476360D+00  4.7987779819779D-01
    52  5.1000000000000D-01  1.3199459957737D+00  5.0726161918381D-01
    53  5.2000000000000D-01  1.2966014249120D+00  5.3445209691077D-01
    54  5.3000000000000D-01  1.2716487479886D+00  5.6147131314799D-01
    55  5.4000000000000D-01  1.2451116215002D+00  5.8834778106821D-01
    56  5.5000000000000D-01  1.2170142792480D+00  6.1511551101538D-01
    57  5.6000000000000D-01  1.1873818973837D+00  6.4181298278670D-01
    58  5.7000000000000D-01  1.1562409857745D+00  6.6848203632567D-01
    59  5.8000000000000D-01  1.1236198002851D+00  6.9516669381493D-01
    60  5.9000000000000D-01  1.0895487702029D+00  7.2191192711480D-01
    61  6.0000000000000D-01  1.0540609347251D+00  7.4876238531061D-01
    62  6.1000000000000D-01  1.0171923821844D+00  7.7576109779303D-01
    63  6.2000000000000D-01  9.7898268551331D-01  8.0294816879660D-01
    64  6.3000000000000D-01  9.3947532734436D-01  8.3035947965000D-01
    65  6.4000000000000D-01  8.9871810811409D-01  8.5802541514781D-01
    66  6.5000000000000D-01  8.5676353058217D-01  8.8596963042632D-01
    67  6.6000000000000D-01  8.1366915429839D-01  9.1420787452192D-01
    68  6.7000000000000D-01  7.6949791374632D-01  9.4274688640017D-01
    69  6.8000000000000D-01  7.2431839416260D-01  9.7158337867701D-01
    70  6.9000000000000D-01  6.7820505937290D-01  1.0007031235113D+00
    71  7.0000000000000D-01  6.3123842640031D-01  1.0300801542314D+00
    72  7.1000000000000D-01  5.8350518208042D-01  1.0596760951840D+00
    73  7.2000000000000D-01  5.3509823746115D-01  1.0894396310609D+00
    74  7.3000000000000D-01  4.8611671636273D-01  1.1193061255924D+00
    75  7.4000000000000D-01  4.3666587512860D-01  1.1491973979902D+00
    76  7.5000000000000D-01  3.8685695129460D-01  1.1790216639057D+00
    77  7.6000000000000D-01  3.3680693964096D-01  1.2086736459594D+00
    78  7.7000000000000D-01  2.8663829486160D-01  1.2380348570937D+00
    79  7.8000000000000D-01  2.3647856087786D-01  1.2669740581431D+00
    80  7.9000000000000D-01  1.8645992763458D-01  1.2953478891066D+00
    81  8.0000000000000D-01  1.3671871703110D-01  1.3230016716791D+00
    82  8.1000000000000D-01  8.7394800457860D-02  1.3497703786571D+00
    83  8.2000000000000D-01  3.8630951215070D-02  1.3754797639158D+00
    84  8.3000000000000D-01 -9.4278641230652D-03  1.3999476447703D+00
    85  8.4000000000000D-01 -5.6635250574056D-02  1.4229853267045D+00
    86  8.5000000000000D-01 -1.0284420029349D-01  1.4443991587050D+00
    87  8.6000000000000D-01 -1.4790795257231D-01  1.4639922057815D+00
    88  8.7000000000000D-01 -1.9168089142652D-01  1.4815660237217D+00
    89  8.8000000000000D-01 -2.3401947335153D-01  1.4969225197261D+00
    90  8.9000000000000D-01 -2.7478317731118D-01  1.5098658813183D+00
    91  9.0000000000000D-01 -3.1383546860143D-01  1.5202045548426D+00
    92  9.1000000000000D-01 -3.5104476787791D-01  1.5277532539569D+00
    93  9.2000000000000D-01 -3.8628541636904D-01  1.5323349778204D+00
    94  9.3000000000000D-01 -4.1943862811759D-01  1.5337830181675D+00
    95  9.4000000000000D-01 -4.5039342000405D-01  1.5319429341631D+00
    96  9.5000000000000D-01 -4.7904751031106D-01  1.5266744738565D+00
    97  9.6000000000000D-01 -5.0530817668791D-01  1.5178534211939D+00
    98  9.7000000000000D-01 -5.2909306457001D-01  1.5053733479163D+00
    99  9.8000000000000D-01 -5.5033093739780D-01  1.4891472502572D+00
   100  9.9000000000000D-01 -5.6896236036418D-01  1.4691090511621D+00
   101  1.0000000000000D+00 -5.8494030989047D-01  1.4452149497669D+00
   102  1.0100000000000D+00 -5.9823070160815D-01  1.4174446011335D+00
   103  1.0200000000000D+00 -6.0881283023669D-01  1.3858021105941D+00
   104  1.0300000000000D+00 -6.1667971550023D-01  1.3503168287306D+00
   105  1.0400000000000D+00 -6.2183834900652D-01  1.3110439347651D+00
   106  1.0500000000000D+00 -6.2430983786502D-01  1.2680647980572D+00
   107  1.0600000000000D+00 -6.2412944173681D-01  1.2214871094796D+00
   108  1.0700000000000D+00 -6.2134650100000D-01  1.1714447766863D+00
   109  1.0800000000000D+00 -6.1602425460957D-01  1.1180975793321D+00
   110  1.0900000000000D+00 -6.0823954740293D-01  1.0616305829736D+00
   111  1.1000000000000D+00 -5.9808242753178D-01  1.0022533125126D+00
   112  1.1100000000000D+00 -5.8565563583949D-01  9.4019868865448D-01
   113  1.1200000000000D+00 -5.7107398995962D-01  8.7572173305151D-01
   114  1.1300000000000D+00 -5.5446366700274D-01  8.0909805031637D-01
   115  1.1400000000000D+00 -5.3596138973491D-01  7.4062209748270D-01
   116  1.1500000000000D+00 -5.1571352211337D-01  6.7060525371558D-01
   117  1.1600000000000D+00 -4.9387508090647D-01  5.9937370507059D-01
   118  1.1700000000000D+00 -4.7060867106117D-01  5.2726616127233D-01
   119  1.1800000000000D+00 -4.4608335333041D-01  4.5463142346011D-01
   120  1.1900000000000D+00 -4.2047345339198D-01  3.8182582352834D-01
   121  1.2000000000000D+00 -3.9395732217873D-01  3.0921055682869D-01
   122  1.2100000000000D+00 -3.6671605798765D-01  2.3714893198901D-01
   123  1.2200000000000D+00 -3.3893220122629D-01  1.6600356229745D-01
   124  1.2300000000000D+00 -3.1078841299634D-01  9.6133523910424D-02
   125  1.2400000000000D+00 -2.8246614908053D-01  2.7891507012785D-02
   126  1.2500000000000D+00 -2.5414434100855D-01 -3.8379013650942D-02
   127  1.2600000000000D+00 -2.2599809580188D-01 -1.0234656261380D-01
   128  1.2700000000000D+00 -1.9819742614903D-01 -1.6369437526008D-01
   129  1.2800000000000D+00 -1.7090602233841D-01 -2.2212301143828D-01
   130  1.2900000000000D+00 -1.4428007693664D-01 -2.7735284619010D-01
   131  1.3000000000000D+00 -1.1846717323054D-01 -3.2912641258228D-01
   132  1.3100000000000D+00 -9.3605247207439D-02 -3.7721057445408D-01
   133  1.3200000000000D+00 -6.9821632623134D-02 -4.2139850741408D-01
   134  1.3300000000000D+00 -4.7232198381336D-02 -4.6151146714791D-01
   135  1.3400000000000D+00 -2.5940585370035D-02 -4.9740032886155D-01
   136  1.3500000000000D+00 -6.0375503899522D-03 -5.2894688056408D-01
   137  1.3600000000000D+00  1.2399576682053D-02 -5.5606485630695D-01
   138  1.3700000000000D+00  2.9307318656136D-02 -5.7870070080214D-01
   139  1.3800000000000D+00  4.4636354080436D-02 -5.9683405269565D-01
   140  1.3900000000000D+00  5.8351696396310D-02 -6.1047794402077D-01
   141  1.4000000000000D+00  7.0432747420084D-02 -6.1967871199721D-01
   142  1.4100000000000D+00  8.0873223634972D-02 -6.2451561993372D-01
   143  1.4200000000000D+00  8.9680958601160D-02 -6.2510019511721D-01
   144  1.4300000000000D+00  9.6877581059905D-02 -6.2157528296526D-01
   145  1.4400000000000D+00  1.0249807399134D-01 -6.1411382982516D-01
   146  1.4500000000000D+00  1.0659021884682D-01 -6.0291740440970D-01
   147  1.4600000000000D+00  1.0921392930764D-01 -5.8821446816007D-01
   148  1.4700000000000D+00  1.1044048423209D-01 -5.7025841707837D-01
   149  1.4800000000000D+00  1.1035166405420D-01 -5.4932540511754D-01
   150  1.4900000000000D+00  1.0903880287986D-01 -5.2571197763139D-01
   151  1.5000000000000D+00  1.0660176353763D-01 -4.9973253187741D-01
   152  1.5100000000000D+00  1.0314784727712D-01 -4.7171663180236D-01
   153  1.5200000000000D+00  9.8790649231924D-02 -4.4200620299216D-01
   154  1.5300000000000D+00  9.3648870647082D-02 -4.1095263342946D-01
   155  1.5400000000000D+00  8.7845101351098D-02 -3.7891381135427D-01
   156  1.5500000000000D+00  8.1504583726043D-02 -3.4625112647588D-01
   157  1.5600000000000D+00  7.4753974033443D-02 -3.1332647171492D-01
   158  1.5700000000000D+00  6.7720103435320D-02 -2.8049924892576D-01
   159  1.5800000000000D+00  6.0528784514508D-02 -2.4812349106861D-01
   160  1.5900000000000D+00  5.3303580374903D-02 -2.1654489208385D-01
   161  1.6000000000000D+00  4.6164627262748D-02 -1.8609796387750D-01
   162  1.6100000000000D+00  3.9227996672869D-02 -1.5710455483690D-01
   163  1.6200000000000D+00  3.2604124357080D-02 -1.2987000373730D-01
   164  1.6300000000000D+00  2.6395630267403D-02 -1.0467772356288D-01
   165  1.6400000000000D+00  2.0695472395349D-02 -8.1784697772859D-02
   166  1.6500000000000D+00  1.5584750197418D-02 -6.1416118797949D-02
   167  1.6600000000000D+00  1.1134894008946D-02 -4.3775512720936D-02
   168  1.6700000000000D+00  7.3931883642631D-03 -2.8988579265258D-02
   169  1.6800000000000D+00  4.3849431200335D-03 -1.7115039566973D-02
   170  1.6900000000000D+00  2.1886650291962D-03 -8.4341819818597D-03
   171  1.7000000000000D+00  8.5792360062179D-04 -3.1411619113428D-03
   172  1.7100000000000D+00  2.2709527967612D-04 -6.3689779364121D-04
   173  1.7200000000000D+00  1.2746587464816D-05  1.2274196083731D-04
   174  1.7300000000000D+00 -8.5619938010843D-06  7.2757003024856D-05
   175  1.7400000000000D+00  9.1918840125206D-06 -6.1982800268059D-05
   176  1.7500000000000D+00  6.2959586567086D-06 -3.8563657571326D-05
   177  1.7600000000000D+00 -1.0079639266051D-06  9.0140126643258D-06
   178  1.7700000000000D+00 -9.8411914839377D-07  7.8863778206038D-06
   179  1.7800000000000D+00 -2.6716666277731D-07  5.6342390739264D-07
   180  1.7900000000000D+00 -3.0631046091624D-07  6.4597369660793D-07
   181  1.8000000000000D+00  0.0000000000000D+00  0.0000000000000D+00
   182  1.8100000000000D+00  0.0000000000000D+00  0.0000000000000D+00
   183  1.8200000000000D+00  0.0000000000000D+00  0.0000000000000D+00
   184  1.8300000000000D+00  0.0000000000000D+00  0.0000000000000D+00
   185  1.8400000000000D+00  0.0000000000000D+00  0.0000000000000D+00
   186  1.8500000000000D+00  0.0000000000000D+00  0.0000000000000D+00
   187  1.8600000000000D+00  0.0000000000000D+00  0.0000000000000D+00
   188  1.8700000000000D+00  0.0000000000000D+00  0.0000000000000D+00
   189  1.8800000000000D+00  0.0000000000000D+00  0.0000000000000D+00
   190  1.8900000000000D+00  0.0000000000000D+00  0.0000000000000D+00
   191  1.9000000000000D+00  0.0000000000000D+00  0.0000000000000D+00
   192  1.9100000000000D+00  0.0000000000000D+00  0.0000000000000D+00
   193  1.9200000000000D+00  0.0000000000000D+00  0.0000000000000D+00
   194  1.9300000000000D+00  0.0000000000000D+00  0.0000000000000D+00
   195  1.9400000000000D+00  0.0000000000000D+00  0.0000000000000D+00
   196  1.9500000000000D+00  0.0000000000000D+00  0.0000000000000D+00
   197  1.9600000000000D+00  0.0000000000000D+00  0.0000000000000D+00
   198  1.9700000000000D+00  0.0000000000000D+00  0.0000000000000D+00
   199  1.9800000000000D+00  0.0000000000000D+00  0.0000000000000D+00
   200  1.9900000000000D+00  0.0000000000000D+00  0.0000000000000D+00
   201  2.0000000000000D+00  0.0000000000000D+00  0.0000000000000D+00
   202  2.0100000000000D+00  0.0000000000000D+00  0.0000000000000D+00
   203  2.0200000000000D+00  0.0000000000000D+00  0.0000000000000D+00
   204  2.0300000000000D+00  0.0000000000000D+00  0.0000000000000D+00
   205  2.0400000000000D+00  0.0000000000000D+00  0.0000000000000D+00
   206  2.0500000000000D+00  0.0000000000000D+00  0.0000000000000D+00
   207  2.0600000000000D+00  0.0000000000000D+00  0.0000000000000D+00
   208  2.0700000000000D+00  0.0000000000000D+00  0.0000000000000D+00
   209  2.0800000000000D+00  0.0000000000000D+00  0.0000000000000D+00
   210  2.0900000000000D+00  0.0000000000000D+00  0.0000000000000D+00
   211  2.1000000000000D+00  0.0000000000000D+00  0.0000000000000D+00
   212  2.1100000000000D+00  0.0000000000000D+00  0.0000000000000D+00
   213  2.1200000000000D+00  0.0000000000000D+00  0.0000000000000D+00
   214  2.1300000000000D+00  0.0000000000000D+00  0.0000000000000D+00
   215  2.1400000000000D+00  0.0000000000000D+00  0.0000000000000D+00
   216  2.1500000000000D+00  0.0000000000000D+00  0.0000000000000D+00
   217  2.1600000000000D+00  0.0000000000000D+00  0.0000000000000D+00
   218  2.1700000000000D+00  0.0000000000000D+00  0.0000000000000D+00
   219  2.1800000000000D+00  0.0000000000000D+00  0.0000000000000D+00
   220  2.1900000000000D+00  0.0000000000000D+00  0.0000000000000D+00
   221  2.2000000000000D+00  0.0000000000000D+00  0.0000000000000D+00
   222  2.2100000000000D+00  0.0000000000000D+00  0.0000000000000D+00
   223  2.2200000000000D+00  0.0000000000000D+00  0.0000000000000D+00
   224  2.2300000000000D+00  0.0000000000000D+00  0.0000000000000D+00
   225  2.2400000000000D+00  0.0000000000000D+00  0.0000000000000D+00
   226  2.2500000000000D+00  0.0000000000000D+00  0.0000000000000D+00
   227  2.2600000000000D+00  0.0000000000000D+00  0.0000000000000D+00
   228  2.2700000000000D+00  0.0000000000000D+00  0.0000000000000D+00
   229  2.2800000000000D+00  0.0000000000000D+00  0.0000000000000D+00
   230  2.2900000000000D+00  0.0000000000000D+00  0.0000000000000D+00
   231  2.3000000000000D+00  0.0000000000000D+00  0.0000000000000D+00
   232  2.3100000000000D+00  0.0000000000000D+00  0.0000000000000D+00
   233  2.3200000000000D+00  0.0000000000000D+00  0.0000000000000D+00
   234  2.3300000000000D+00  0.0000000000000D+00  0.0000000000000D+00
   235  2.3400000000000D+00  0.0000000000000D+00  0.0000000000000D+00
   236  2.3500000000000D+00  0.0000000000000D+00  0.0000000000000D+00
   237  2.3600000000000D+00  0.0000000000000D+00  0.0000000000000D+00
   238  2.3700000000000D+00  0.0000000000000D+00  0.0000000000000D+00
   239  2.3800000000000D+00  0.0000000000000D+00  0.0000000000000D+00
   240  2.3900000000000D+00  0.0000000000000D+00  0.0000000000000D+00
   241  2.4000000000000D+00  0.0000000000000D+00  0.0000000000000D+00
   242  2.4100000000000D+00  0.0000000000000D+00  0.0000000000000D+00
   243  2.4200000000000D+00  0.0000000000000D+00  0.0000000000000D+00
   244  2.4300000000000D+00  0.0000000000000D+00  0.0000000000000D+00
   245  2.4400000000000D+00  0.0000000000000D+00  0.0000000000000D+00
   246  2.4500000000000D+00  0.0000000000000D+00  0.0000000000000D+00
   247  2.4600000000000D+00  0.0000000000000D+00  0.0000000000000D+00
   248  2.4700000000000D+00  0.0000000000000D+00  0.0000000000000D+00
   249  2.4800000000000D+00  0.0000000000000D+00  0.0000000000000D+00
   250  2.4900000000000D+00  0.0000000000000D+00  0.0000000000000D+00
   251  2.5000000000000D+00  0.0000000000000D+00  0.0000000000000D+00
   252  2.5100000000000D+00  0.0000000000000D+00  0.0000000000000D+00
   253  2.5200000000000D+00  0.0000000000000D+00  0.0000000000000D+00
   254  2.5300000000000D+00  0.0000000000000D+00  0.0000000000000D+00
   255  2.5400000000000D+00  0.0000000000000D+00  0.0000000000000D+00
   256  2.5500000000000D+00  0.0000000000000D+00  0.0000000000000D+00
   257  2.5600000000000D+00  0.0000000000000D+00  0.0000000000000D+00
   258  2.5700000000000D+00  0.0000000000000D+00  0.0000000000000D+00
   259  2.5800000000000D+00  0.0000000000000D+00  0.0000000000000D+00
   260  2.5900000000000D+00  0.0000000000000D+00  0.0000000000000D+00
   261  2.6000000000000D+00  0.0000000000000D+00  0.0000000000000D+00
   262  2.6100000000000D+00  0.0000000000000D+00  0.0000000000000D+00
   263  2.6200000000000D+00  0.0000000000000D+00  0.0000000000000D+00
   264  2.6300000000000D+00  0.0000000000000D+00  0.0000000000000D+00
   265  2.6400000000000D+00  0.0000000000000D+00  0.0000000000000D+00
   266  2.6500000000000D+00  0.0000000000000D+00  0.0000000000000D+00
   267  2.6600000000000D+00  0.0000000000000D+00  0.0000000000000D+00
   268  2.6700000000000D+00  0.0000000000000D+00  0.0000000000000D+00
   269  2.6800000000000D+00  0.0000000000000D+00  0.0000000000000D+00
   270  2.6900000000000D+00  0.0000000000000D+00  0.0000000000000D+00
   271  2.7000000000000D+00  0.0000000000000D+00  0.0000000000000D+00
   272  2.7100000000000D+00  0.0000000000000D+00  0.0000000000000D+00
   273  2.7200000000000D+00  0.0000000000000D+00  0.0000000000000D+00
   274  2.7300000000000D+00  0.0000000000000D+00  0.0000000000000D+00
   275  2.7400000000000D+00  0.0000000000000D+00  0.0000000000000D+00
   276  2.7500000000000D+00  0.0000000000000D+00  0.0000000000000D+00
   277  2.7600000000000D+00  0.0000000000000D+00  0.0000000000000D+00
   278  2.7700000000000D+00  0.0000000000000D+00  0.0000000000000D+00
   279  2.7800000000000D+00  0.0000000000000D+00  0.0000000000000D+00
   280  2.7900000000000D+00  0.0000000000000D+00  0.0000000000000D+00
   281  2.8000000000000D+00  0.0000000000000D+00  0.0000000000000D+00
   282  2.8100000000000D+00  0.0000000000000D+00  0.0000000000000D+00
   283  2.8200000000000D+00  0.0000000000000D+00  0.0000000000000D+00
   284  2.8300000000000D+00  0.0000000000000D+00  0.0000000000000D+00
   285  2.8400000000000D+00  0.0000000000000D+00  0.0000000000000D+00
   286  2.8500000000000D+00  0.0000000000000D+00  0.0000000000000D+00
   287  2.8600000000000D+00  0.0000000000000D+00  0.0000000000000D+00
   288  2.8700000000000D+00  0.0000000000000D+00  0.0000000000000D+00
   289  2.8800000000000D+00  0.0000000000000D+00  0.0000000000000D+00
   290  2.8900000000000D+00  0.0000000000000D+00  0.0000000000000D+00
   291  2.9000000000000D+00  0.0000000000000D+00  0.0000000000000D+00
   292  2.9100000000000D+00  0.0000000000000D+00  0.0000000000000D+00
   293  2.9200000000000D+00  0.0000000000000D+00  0.0000000000000D+00
   294  2.9300000000000D+00  0.0000000000000D+00  0.0000000000000D+00
   295  2.9400000000000D+00  0.0000000000000D+00  0.0000000000000D+00
   296  2.9500000000000D+00  0.0000000000000D+00  0.0000000000000D+00
   297  2.9600000000000D+00  0.0000000000000D+00  0.0000000000000D+00
   298  2.9700000000000D+00  0.0000000000000D+00  0.0000000000000D+00
   299  2.9800000000000D+00  0.0000000000000D+00  0.0000000000000D+00
   300  2.9900000000000D+00  0.0000000000000D+00  0.0000000000000D+00
   301  3.0000000000000D+00  0.0000000000000D+00  0.0000000000000D+00
   302  3.0100000000000D+00  0.0000000000000D+00  0.0000000000000D+00
   303  3.0200000000000D+00  0.0000000000000D+00  0.0000000000000D+00
   304  3.0300000000000D+00  0.0000000000000D+00  0.0000000000000D+00
   305  3.0400000000000D+00  0.0000000000000D+00  0.0000000000000D+00
   306  3.0500000000000D+00  0.0000000000000D+00  0.0000000000000D+00
   307  3.0600000000000D+00  0.0000000000000D+00  0.0000000000000D+00
   308  3.0700000000000D+00  0.0000000000000D+00  0.0000000000000D+00
   309  3.0800000000000D+00  0.0000000000000D+00  0.0000000000000D+00
   310  3.0900000000000D+00  0.0000000000000D+00  0.0000000000000D+00
   311  3.1000000000000D+00  0.0000000000000D+00  0.0000000000000D+00
   312  3.1100000000000D+00  0.0000000000000D+00  0.0000000000000D+00
   313  3.1200000000000D+00  0.0000000000000D+00  0.0000000000000D+00
   314  3.1300000000000D+00  0.0000000000000D+00  0.0000000000000D+00
   315  3.1400000000000D+00  0.0000000000000D+00  0.0000000000000D+00
   316  3.1500000000000D+00  0.0000000000000D+00  0.0000000000000D+00
   317  3.1600000000000D+00  0.0000000000000D+00  0.0000000000000D+00
   318  3.1700000000000D+00  0.0000000000000D+00  0.0000000000000D+00
   319  3.1800000000000D+00  0.0000000000000D+00  0.0000000000000D+00
   320  3.1900000000000D+00  0.0000000000000D+00  0.0000000000000D+00
   321  3.2000000000000D+00  0.0000000000000D+00  0.0000000000000D+00
   322  3.2100000000000D+00  0.0000000000000D+00  0.0000000000000D+00
   323  3.2200000000000D+00  0.0000000000000D+00  0.0000000000000D+00
   324  3.2300000000000D+00  0.0000000000000D+00  0.0000000000000D+00
   325  3.2400000000000D+00  0.0000000000000D+00  0.0000000000000D+00
   326  3.2500000000000D+00  0.0000000000000D+00  0.0000000000000D+00
   327  3.2600000000000D+00  0.0000000000000D+00  0.0000000000000D+00
   328  3.2700000000000D+00  0.0000000000000D+00  0.0000000000000D+00
   329  3.2800000000000D+00  0.0000000000000D+00  0.0000000000000D+00
   330  3.2900000000000D+00  0.0000000000000D+00  0.0000000000000D+00
   331  3.3000000000000D+00  0.0000000000000D+00  0.0000000000000D+00
   332  3.3100000000000D+00  0.0000000000000D+00  0.0000000000000D+00
   333  3.3200000000000D+00  0.0000000000000D+00  0.0000000000000D+00
   334  3.3300000000000D+00  0.0000000000000D+00  0.0000000000000D+00
   335  3.3400000000000D+00  0.0000000000000D+00  0.0000000000000D+00
   336  3.3500000000000D+00  0.0000000000000D+00  0.0000000000000D+00
   337  3.3600000000000D+00  0.0000000000000D+00  0.0000000000000D+00
   338  3.3700000000000D+00  0.0000000000000D+00  0.0000000000000D+00
   339  3.3800000000000D+00  0.0000000000000D+00  0.0000000000000D+00
   340  3.3900000000000D+00  0.0000000000000D+00  0.0000000000000D+00
   341  3.4000000000000D+00  0.0000000000000D+00  0.0000000000000D+00
   342  3.4100000000000D+00  0.0000000000000D+00  0.0000000000000D+00
   343  3.4200000000000D+00  0.0000000000000D+00  0.0000000000000D+00
   344  3.4300000000000D+00  0.0000000000000D+00  0.0000000000000D+00
   345  3.4400000000000D+00  0.0000000000000D+00  0.0000000000000D+00
   346  3.4500000000000D+00  0.0000000000000D+00  0.0000000000000D+00
   347  3.4600000000000D+00  0.0000000000000D+00  0.0000000000000D+00
   348  3.4700000000000D+00  0.0000000000000D+00  0.0000000000000D+00
   349  3.4800000000000D+00  0.0000000000000D+00  0.0000000000000D+00
   350  3.4900000000000D+00  0.0000000000000D+00  0.0000000000000D+00
   351  3.5000000000000D+00  0.0000000000000D+00  0.0000000000000D+00
   352  3.5100000000000D+00  0.0000000000000D+00  0.0000000000000D+00
   353  3.5200000000000D+00  0.0000000000000D+00  0.0000000000000D+00
   354  3.5300000000000D+00  0.0000000000000D+00  0.0000000000000D+00
   355  3.5400000000000D+00  0.0000000000000D+00  0.0000000000000D+00
   356  3.5500000000000D+00  0.0000000000000D+00  0.0000000000000D+00
   357  3.5600000000000D+00  0.0000000000000D+00  0.0000000000000D+00
   358  3.5700000000000D+00  0.0000000000000D+00  0.0000000000000D+00
   359  3.5800000000000D+00  0.0000000000000D+00  0.0000000000000D+00
   360  3.5900000000000D+00  0.0000000000000D+00  0.0000000000000D+00
   361  3.6000000000000D+00  0.0000000000000D+00  0.0000000000000D+00
   362  3.6100000000000D+00  0.0000000000000D+00  0.0000000000000D+00
   363  3.6200000000000D+00  0.0000000000000D+00  0.0000000000000D+00
   364  3.6300000000000D+00  0.0000000000000D+00  0.0000000000000D+00
   365  3.6400000000000D+00  0.0000000000000D+00  0.0000000000000D+00
   366  3.6500000000000D+00  0.0000000000000D+00  0.0000000000000D+00
   367  3.6600000000000D+00  0.0000000000000D+00  0.0000000000000D+00
   368  3.6700000000000D+00  0.0000000000000D+00  0.0000000000000D+00
   369  3.6800000000000D+00  0.0000000000000D+00  0.0000000000000D+00
   370  3.6900000000000D+00  0.0000000000000D+00  0.0000000000000D+00
   371  3.7000000000000D+00  0.0000000000000D+00  0.0000000000000D+00
   372  3.7100000000000D+00  0.0000000000000D+00  0.0000000000000D+00
   373  3.7200000000000D+00  0.0000000000000D+00  0.0000000000000D+00
   374  3.7300000000000D+00  0.0000000000000D+00  0.0000000000000D+00
   375  3.7400000000000D+00  0.0000000000000D+00  0.0000000000000D+00
   376  3.7500000000000D+00  0.0000000000000D+00  0.0000000000000D+00
   377  3.7600000000000D+00  0.0000000000000D+00  0.0000000000000D+00
   378  3.7700000000000D+00  0.0000000000000D+00  0.0000000000000D+00
   379  3.7800000000000D+00  0.0000000000000D+00  0.0000000000000D+00
   380  3.7900000000000D+00  0.0000000000000D+00  0.0000000000000D+00
   381  3.8000000000000D+00  0.0000000000000D+00  0.0000000000000D+00
   382  3.8100000000000D+00  0.0000000000000D+00  0.0000000000000D+00
   383  3.8200000000000D+00  0.0000000000000D+00  0.0000000000000D+00
   384  3.8300000000000D+00  0.0000000000000D+00  0.0000000000000D+00
   385  3.8400000000000D+00  0.0000000000000D+00  0.0000000000000D+00
   386  3.8500000000000D+00  0.0000000000000D+00  0.0000000000000D+00
   387  3.8600000000000D+00  0.0000000000000D+00  0.0000000000000D+00
   388  3.8700000000000D+00  0.0000000000000D+00  0.0000000000000D+00
   389  3.8800000000000D+00  0.0000000000000D+00  0.0000000000000D+00
   390  3.8900000000000D+00  0.0000000000000D+00  0.0000000000000D+00
   391  3.9000000000000D+00  0.0000000000000D+00  0.0000000000000D+00
   392  3.9100000000000D+00  0.0000000000000D+00  0.0000000000000D+00
   393  3.9200000000000D+00  0.0000000000000D+00  0.0000000000000D+00
   394  3.9300000000000D+00  0.0000000000000D+00  0.0000000000000D+00
   395  3.9400000000000D+00  0.0000000000000D+00  0.0000000000000D+00
   396  3.9500000000000D+00  0.0000000000000D+00  0.0000000000000D+00
   397  3.9600000000000D+00  0.0000000000000D+00  0.0000000000000D+00
   398  3.9700000000000D+00  0.0000000000000D+00  0.0000000000000D+00
   399  3.9800000000000D+00  0.0000000000000D+00  0.0000000000000D+00
   400  3.9900000000000D+00  0.0000000000000D+00  0.0000000000000D+00
   401  4.0000000000000D+00  0.0000000000000D+00  0.0000000000000D+00
   402  4.0100000000000D+00  0.0000000000000D+00  0.0000000000000D+00
   403  4.0200000000000D+00  0.0000000000000D+00  0.0000000000000D+00
   404  4.0300000000000D+00  0.0000000000000D+00  0.0000000000000D+00
   405  4.0400000000000D+00  0.0000000000000D+00  0.0000000000000D+00
   406  4.0500000000000D+00  0.0000000000000D+00  0.0000000000000D+00
   407  4.0600000000000D+00  0.0000000000000D+00  0.0000000000000D+00
   408  4.0700000000000D+00  0.0000000000000D+00  0.0000000000000D+00
   409  4.0800000000000D+00  0.0000000000000D+00  0.0000000000000D+00
   410  4.0900000000000D+00  0.0000000000000D+00  0.0000000000000D+00
   411  4.1000000000000D+00  0.0000000000000D+00  0.0000000000000D+00
   412  4.1100000000000D+00  0.0000000000000D+00  0.0000000000000D+00
   413  4.1200000000000D+00  0.0000000000000D+00  0.0000000000000D+00
   414  4.1300000000000D+00  0.0000000000000D+00  0.0000000000000D+00
   415  4.1400000000000D+00  0.0000000000000D+00  0.0000000000000D+00
   416  4.1500000000000D+00  0.0000000000000D+00  0.0000000000000D+00
   417  4.1600000000000D+00  0.0000000000000D+00  0.0000000000000D+00
   418  4.1700000000000D+00  0.0000000000000D+00  0.0000000000000D+00
   419  4.1800000000000D+00  0.0000000000000D+00  0.0000000000000D+00
   420  4.1900000000000D+00  0.0000000000000D+00  0.0000000000000D+00
   421  4.2000000000000D+00  0.0000000000000D+00  0.0000000000000D+00
   422  4.2100000000000D+00  0.0000000000000D+00  0.0000000000000D+00