Ba    ONCVPSP-3.3.0  r_core=   1.95835   1.80147   1.91218
     56.0000     10.0000      220117    zatom,zion,pspd
     8      11   2     4   600     0    pspcod,pspxc,lmax,lloc,mmax,r2well
  5.99000000  0.00000000  0.00000000    rchrg fchrg qchrg
     2     2     2     0     0    nproj
     1     1           extension_switch
   0                         6.5267950888657D+00  6.2838314844828D-01
     1  0.0000000000000D+00  2.3043816854695D-11 -1.1042137690320D-10
     2  1.0000000000000D-02  2.4814950797145D-02 -2.2564762202762D-03
     3  2.0000000000000D-02  4.9636421926443D-02 -4.5632388453825D-03
     4  3.0000000000000D-02  7.4470810009196D-02 -6.9701003444840D-03
     5  4.0000000000000D-02  9.9324265087341D-02 -9.5259289845038D-03
     6  5.0000000000000D-02  1.2420256943371D-01 -1.2278185873507D-02
     7  6.0000000000000D-02  1.4911101886584D-01 -1.5272472898879D-02
     8  7.0000000000000D-02  1.7405430737057D-01 -1.8552095061352D-02
     9  8.0000000000000D-02  1.9903641582377D-01 -2.2157640595524D-02
    10  9.0000000000000D-02  2.2406050556069D-01 -2.6126582130701D-02
    11  1.0000000000000D-01  2.4912881751907D-01 -3.0492901984433D-02
    12  1.1000000000000D-01  2.7424257763787D-01 -3.5286744495449D-02
    13  1.2000000000000D-01  2.9940190915148D-01 -4.0534098094964D-02
    14  1.3000000000000D-01  3.2460575237076D-01 -4.6256509586475D-02
    15  1.4000000000000D-01  3.4985179249085D-01 -5.2470832856493D-02
    16  1.5000000000000D-01  3.7513639590949D-01 -5.9189013973441D-02
    17  1.6000000000000D-01  4.0045455548085D-01 -6.6417914351855D-02
    18  1.7000000000000D-01  4.2579984506799D-01 -7.4159173365573D-02
    19  1.8000000000000D-01  4.5116438369262D-01 -8.2409111489504D-02
    20  1.9000000000000D-01  4.7653880951487D-01 -9.1158674736912D-02
    21  2.0000000000000D-01  5.0191226380763D-01 -1.0039342084020D-01
    22  2.1000000000000D-01  5.2727238502186D-01 -1.1009354730084D-01
    23  2.2000000000000D-01  5.5260531296936D-01 -1.2023396111035D-01
    24  2.3000000000000D-01  5.7789570308099D-01 -1.3078438962175D-01
    25  2.4000000000000D-01  6.0312675062914D-01 -1.4170953173226D-01
    26  2.5000000000000D-01  6.2828022473570D-01 -1.5296924822598D-01
    27  2.6000000000000D-01  6.5333651192064D-01 -1.6451878982079D-01
    28  2.7000000000000D-01  6.7827466888210D-01 -1.7630906117201D-01
    29  2.8000000000000D-01  7.0307248413686D-01 -1.8828691880517D-01
    30  2.9000000000000D-01  7.2770654809159D-01 -2.0039550068687D-01
    31  3.0000000000000D-01  7.5215233105934D-01 -2.1257458489643D-01
    32  3.1000000000000D-01  7.7638426868393D-01 -2.2476097463426D-01
    33  3.2000000000000D-01  8.0037585418749D-01 -2.3688890659777D-01
    34  3.3000000000000D-01  8.2409973681247D-01 -2.4889047957326D-01
    35  3.4000000000000D-01  8.4752782579149D-01 -2.6069609993488D-01
    36  3.5000000000000D-01  8.7063139914447D-01 -2.7223494060942D-01
    37  3.6000000000000D-01  8.9338121657428D-01 -2.8343540996117D-01
    38  3.7000000000000D-01  9.1574763570966D-01 -2.9422562697390D-01
    39  3.8000000000000D-01  9.3770073092648D-01 -3.0453389905833D-01
    40  3.9000000000000D-01  9.5921041396759D-01 -3.1428919879424D-01
    41  4.0000000000000D-01  9.8024655557546D-01 -3.2342163592583D-01
    42  4.1000000000000D-01  1.0007791073524D+00 -3.3186292096818D-01
    43  4.2000000000000D-01  1.0207782230690D+00 -3.3954681685062D-01
    44  4.3000000000000D-01  1.0402143786543D+00 -3.4640957511963D-01
    45  4.4000000000000D-01  1.0590584901161D+00 -3.5239035334892D-01
    46  4.5000000000000D-01  1.0772820286677D+00 -3.5743161055549D-01
    47  4.6000000000000D-01  1.0948571323605D+00 -3.6147947759954D-01
    48  4.7000000000000D-01  1.1117567135591D+00 -3.6448409974703D-01
    49  4.8000000000000D-01  1.1279545616331D+00 -3.6639994880138D-01
    50  4.9000000000000D-01  1.1434254402823D+00 -3.6718610245617D-01
    51  5.0000000000000D-01  1.1581451789589D+00 -3.6680648878897D-01
    52  5.1000000000000D-01  1.1720907579028D+00 -3.6523009409995D-01
    53  5.2000000000000D-01  1.1852403863592D+00 -3.6243113259884D-01
    54  5.3000000000000D-01  1.1975735736048D+00 -3.5838917675666D-01
    55  5.4000000000000D-01  1.2090711924701D+00 -3.5308924746155D-01
    56  5.5000000000000D-01  1.2197155351065D+00 -3.4652186344941D-01
    57  5.6000000000000D-01  1.2294903608094D+00 -3.3868304981657D-01
    58  5.7000000000000D-01  1.2383809357745D+00 -3.2957430576015D-01
    59  5.8000000000000D-01  1.2463740647291D+00 -3.1920253203204D-01
    60  5.9000000000000D-01  1.2534581144433D+00 -3.0757991892687D-01
    61  6.0000000000000D-01  1.2596230291934D+00 -2.9472379595622D-01
    62  6.1000000000000D-01  1.2648603383099D+00 -2.8065644468159D-01
    63  6.2000000000000D-01  1.2691631560064D+00 -2.6540487649168D-01
    64  6.3000000000000D-01  1.2725261737437D+00 -2.4900057740412D-01
    65  6.4000000000000D-01  1.2749456454417D+00 -2.3147922225485D-01
    66  6.5000000000000D-01  1.2764193659034D+00 -2.1288036089905D-01
    67  6.6000000000000D-01  1.2769466428674D+00 -1.9324707928938D-01
    68  6.7000000000000D-01  1.2765282631513D+00 -1.7262563851476D-01
    69  6.8000000000000D-01  1.2751664533888D+00 -1.5106509507673D-01
    70  6.9000000000000D-01  1.2728648359026D+00 -1.2861690584527D-01
    71  7.0000000000000D-01  1.2696283802852D+00 -1.0533452127416D-01
    72  7.1000000000000D-01  1.2654633512882D+00 -8.1272970563809D-02
    73  7.2000000000000D-01  1.2603772536420D+00 -5.6488442535633D-02
    74  7.3000000000000D-01  1.2543787744408D+00 -3.1037866027008D-02
    75  7.4000000000000D-01  1.2474777237407D+00 -4.9784936285314D-03
    76  7.5000000000000D-01  1.2396849740204D+00  2.1632507435899D-02
    77  7.6000000000000D-01  1.2310123991519D+00  4.8738453538815D-02
    78  7.7000000000000D-01  1.2214728135196D+00  7.6283528327886D-02
    79  7.8000000000000D-01  1.2110799119139D+00  1.0421314831189D-01
    80  7.9000000000000D-01  1.1998482108007D+00  1.3247430696243D-01
    81  8.0000000000000D-01  1.1877929915481D+00  1.6101589412143D-01
    82  8.1000000000000D-01  1.1749302461537D+00  1.8978898771506D-01
    83  8.2000000000000D-01  1.1612766259843D+00  2.1874711501385D-01
    84  8.3000000000000D-01  1.1468493939934D+00  2.4784648094359D-01
    85  8.4000000000000D-01  1.1316663808405D+00  2.7704616124052D-01
    86  8.5000000000000D-01  1.1157459452796D+00  3.0630825855725D-01
    87  8.6000000000000D-01  1.0991069391357D+00  3.3559801995475D-01
    88  8.7000000000000D-01  1.0817686771255D+00  3.6488391456612D-01
    89  8.8000000000000D-01  1.0637509117203D+00  3.9413767057892D-01
    90  8.9000000000000D-01  1.0450738131867D+00  4.2333427105725D-01
    91  9.0000000000000D-01  1.0257579548727D+00  4.5245190850680D-01
    92  9.1000000000000D-01  1.0058243037460D+00  4.8147189847365D-01
    93  9.2000000000000D-01  9.8529421611853D-01  5.1037855285682D-01
    94  9.3000000000000D-01  9.6418943843119D-01  5.3915901400260D-01
    95  9.4000000000000D-01  9.4253211290196D-01  5.6780305103184D-01
    96  9.5000000000000D-01  9.2034478777835D-01  5.9630282022678D-01
    97  9.6000000000000D-01  8.9765043187187D-01  6.2465259166814D-01
    98  9.7000000000000D-01  8.7447245299170D-01  6.5284844466246D-01
    99  9.8000000000000D-01  8.5083471983744D-01  6.8088793483132D-01
   100  9.9000000000000D-01  8.2676158685704D-01  7.0876973604611D-01
   101  1.0000000000000D+00  8.0227792152632D-01  7.3649326067919D-01
   102  1.0100000000000D+00  7.7740913346214D-01  7.6405826189880D-01
   103  1.0200000000000D+00  7.5218120474002D-01  7.9146442197606D-01
   104  1.0300000000000D+00  7.2662072075389D-01  8.1871093076519D-01
   105  1.0400000000000D+00  7.0075490092669D-01  8.4579605868818D-01
   106  1.0500000000000D+00  6.7461162855844D-01  8.7271672868725D-01
   107  1.0600000000000D+00  6.4821947908351D-01  8.9946809170036D-01
   108  1.0700000000000D+00  6.2160774599909D-01  9.2604311027460D-01
   109  1.0800000000000D+00  5.9480646372614D-01  9.5243215494873D-01
   110  1.0900000000000D+00  5.6784642666896D-01  9.7862261801268D-01
   111  1.1000000000000D+00  5.4075920375379D-01  1.0045985491831D+00
   112  1.1100000000000D+00  5.1357714774555D-01  1.0303403176367D+00
   113  1.1200000000000D+00  4.8633339866818D-01  1.0558243047028D+00
   114  1.1300000000000D+00  4.5906188069124D-01  1.0810226313207D+00
   115  1.1400000000000D+00  4.3179729188613D-01  1.1059029241432D+00
   116  1.1500000000000D+00  4.0457508630314D-01  1.1304281239146D+00
   117  1.1600000000000D+00  3.7743144786945D-01  1.1545563394801D+00
   118  1.1700000000000D+00  3.5040325567893D-01  1.1782407504034D+00
   119  1.1800000000000D+00  3.2352804030977D-01  1.2014295608070D+00
   120  1.1900000000000D+00  2.9684393086393D-01  1.2240660067398D+00
   121  1.2000000000000D+00  2.7038959251057D-01  1.2460884188838D+00
   122  1.2100000000000D+00  2.4420415439839D-01  1.2674303419671D+00
   123  1.2200000000000D+00  2.1832712788559D-01  1.2880207117782D+00
   124  1.2300000000000D+00  1.9279831509259D-01  1.3077840903732D+00
   125  1.2400000000000D+00  1.6765770791990D-01  1.3266409593060D+00
   126  1.2500000000000D+00  1.4294537775151D-01  1.3445080702778D+00
   127  1.2600000000000D+00  1.1870135609687D-01  1.3612988524234D+00
   128  1.2700000000000D+00  9.4965506603625D-02  1.3769238744547D+00
   129  1.2800000000000D+00  7.1777388930727D-02  1.3912913595595D+00
   130  1.2900000000000D+00  4.9176114998925D-02  1.4043077508010D+00
   131  1.3000000000000D+00  2.7200198320709D-02  1.4158783237290D+00
   132  1.3100000000000D+00  5.8873971617947D-03  1.4259078426211D+00
   133  1.3200000000000D+00 -1.4725447714626D-02  1.4343012567891D+00
   134  1.3300000000000D+00 -3.4602579754109D-02  1.4409644321538D+00
   135  1.3400000000000D+00 -5.3709496825485D-02  1.4458049134252D+00
   136  1.3500000000000D+00 -7.2013123951920D-02  1.4487327119515D+00
   137  1.3600000000000D+00 -8.9481987408550D-02  1.4496611133710D+00
   138  1.3700000000000D+00 -1.0608638910026D-01  1.4485074995629D+00
   139  1.3800000000000D+00 -1.2179858002417D-01  1.4451941787698D+00
   140  1.3900000000000D+00 -1.3659293158456D-01  1.4396492174892D+00
   141  1.4000000000000D+00 -1.5044610355588D-01  1.4318072679451D+00
   142  1.4100000000000D+00 -1.6333720739558D-01  1.4216103843137D+00
   143  1.4200000000000D+00 -1.7524796367745D-01  1.4090088212729D+00
   144  1.4300000000000D+00 -1.8616285233672D-01  1.3939618080099D+00
   145  1.4400000000000D+00 -1.9606925452966D-01  1.3764382912797D+00
   146  1.4500000000000D+00 -2.0495758480283D-01  1.3564176406591D+00
   147  1.4600000000000D+00 -2.1282141242239D-01  1.3338903097748D+00
   148  1.4700000000000D+00 -2.1965757069018D-01  1.3088584472350D+00
   149  1.4800000000000D+00 -2.2546625305077D-01  1.2813364508230D+00
   150  1.4900000000000D+00 -2.3025109511586D-01  1.2513514601112D+00
   151  1.5000000000000D+00 -2.3401924131807D-01  1.2189437805961D+00
   152  1.5100000000000D+00 -2.3678139563619D-01  1.1841672360665D+00
   153  1.5200000000000D+00 -2.3855185519201D-01  1.1470894427333D+00
   154  1.5300000000000D+00 -2.3934852626982D-01  1.1077920023823D+00
   155  1.5400000000000D+00 -2.3919292193719D-01  1.0663706099707D+00
   156  1.5500000000000D+00 -2.3811014072971D-01  1.0229350724888D+00
   157  1.5600000000000D+00 -2.3612882614567D-01  9.7760923737797D-01
   158  1.5700000000000D+00 -2.3328110623888D-01  9.3053082643762D-01
   159  1.5800000000000D+00 -2.2960251371125D-01  8.8185117686612D-01
   160  1.5900000000000D+00 -2.2513188559680D-01  8.3173488434913D-01
   161  1.6000000000000D+00 -2.1991124360517D-01  7.8035935327723D-01
   162  1.6100000000000D+00 -2.1398565410900D-01  7.2791424843660D-01
   163  1.6200000000000D+00 -2.0740306930294D-01  6.7460085564179D-01
   164  1.6300000000000D+00 -2.0021414874297D-01  6.2063134679546D-01
   165  1.6400000000000D+00 -1.9247206293155D-01  5.6622795757515D-01
   166  1.6500000000000D+00 -1.8423227856559D-01  5.1162207533108D-01
   167  1.6600000000000D+00 -1.7555232718445D-01  4.5705324578316D-01
   168  1.6700000000000D+00 -1.6649155722199D-01  4.0276809809944D-01
   169  1.6800000000000D+00 -1.5711087128519D-01  3.4901919740231D-01
   170  1.6900000000000D+00 -1.4747244899080D-01  2.9606382597978D-01
   171  1.7000000000000D+00 -1.3763945728929D-01  2.4416270281982D-01
   172  1.7100000000000D+00 -1.2767574886403D-01  1.9357864407279D-01
   173  1.7200000000000D+00 -1.1764555065081D-01  1.4457517468416D-01
   174  1.7300000000000D+00 -1.0761314326320D-01  9.7415094823174D-02
   175  1.7400000000000D+00 -9.7642533125410D-02  5.2359009846720D-02
   176  1.7500000000000D+00 -8.7797119297720D-02  9.6638344654559D-03
   177  1.7600000000000D+00 -7.8139357934734D-02 -3.0418712872177D-02
   178  1.7700000000000D+00 -6.8730409981384D-02 -6.7643713016923D-02
   179  1.7800000000000D+00 -5.9629844272711D-02 -1.0177432792100D-01
   180  1.7900000000000D+00 -5.0895250744850D-02 -1.3258358529573D-01
   181  1.8000000000000D+00 -4.2581810823258D-02 -1.5985648108909D-01
   182  1.8100000000000D+00 -3.4742225857063D-02 -1.8338989153912D-01
   183  1.8200000000000D+00 -2.7426541429257D-02 -2.0299309848976D-01
   184  1.8300000000000D+00 -2.0682041060075D-02 -2.1848811101518D-01
   185  1.8400000000000D+00 -1.4553249141881D-02 -2.2970933721267D-01
   186  1.8500000000000D+00 -9.0817205146932D-03 -2.3650457800315D-01
   187  1.8600000000000D+00 -4.3057751766431D-03 -2.3873640816826D-01
   188  1.8700000000000D+00 -2.6030857347397D-04 -2.3628310328478D-01
   189  1.8800000000000D+00  3.0233643600663D-03 -2.2903935857083D-01
   190  1.8900000000000D+00  5.5162145162132D-03 -2.1690028452258D-01
   191  1.9000000000000D+00  7.1759006733998D-03 -1.9958128796428D-01
   192  1.9100000000000D+00  8.0392664138063D-03 -1.7767983163321D-01
   193  1.9200000000000D+00  8.1984210255810D-03 -1.5244916238365D-01
   194  1.9300000000000D+00  7.3269390449218D-03 -1.2015067563604D-01
   195  1.9400000000000D+00  5.0797508677309D-03 -7.6695706395005D-02
   196  1.9500000000000D+00  2.0769078970060D-03 -2.9628319334255D-02
   197  1.9600000000000D+00 -1.6757051831604D-04  2.8564311318974D-03
   198  1.9700000000000D+00 -5.9470534578111D-04  8.7449231553796D-03
   199  1.9800000000000D+00 -1.1770581556537D-04  1.6974562492785D-03
   200  1.9900000000000D+00  1.3431904505594D-04 -2.0383618874414D-03
   201  2.0000000000000D+00  8.9303479486611D-05 -1.3471759686431D-03
   202  2.0100000000000D+00 -1.0304505715862D-05  1.6891199183641D-04
   203  2.0200000000000D+00 -1.5978095642535D-05  2.6124679027357D-04
   204  2.0300000000000D+00 -4.9202230969931D-09  1.2472370331972D-08
   205  2.0400000000000D+00 -1.0387710773860D-07  2.6332012414676D-07
   206  2.0500000000000D+00 -4.9595072369687D-08  1.2571952471296D-07
   207  2.0600000000000D+00  0.0000000000000D+00  0.0000000000000D+00
   208  2.0700000000000D+00  0.0000000000000D+00  0.0000000000000D+00
   209  2.0800000000000D+00  0.0000000000000D+00  0.0000000000000D+00
   210  2.0900000000000D+00  0.0000000000000D+00  0.0000000000000D+00
   211  2.1000000000000D+00  0.0000000000000D+00  0.0000000000000D+00
   212  2.1100000000000D+00  0.0000000000000D+00  0.0000000000000D+00
   213  2.1200000000000D+00  0.0000000000000D+00  0.0000000000000D+00
   214  2.1300000000000D+00  0.0000000000000D+00  0.0000000000000D+00
   215  2.1400000000000D+00  0.0000000000000D+00  0.0000000000000D+00
   216  2.1500000000000D+00  0.0000000000000D+00  0.0000000000000D+00
   217  2.1600000000000D+00  0.0000000000000D+00  0.0000000000000D+00
   218  2.1700000000000D+00  0.0000000000000D+00  0.0000000000000D+00
   219  2.1800000000000D+00  0.0000000000000D+00  0.0000000000000D+00
   220  2.1900000000000D+00  0.0000000000000D+00  0.0000000000000D+00
   221  2.2000000000000D+00  0.0000000000000D+00  0.0000000000000D+00
   222  2.2100000000000D+00  0.0000000000000D+00  0.0000000000000D+00
   223  2.2200000000000D+00  0.0000000000000D+00  0.0000000000000D+00
   224  2.2300000000000D+00  0.0000000000000D+00  0.0000000000000D+00
   225  2.2400000000000D+00  0.0000000000000D+00  0.0000000000000D+00
   226  2.2500000000000D+00  0.0000000000000D+00  0.0000000000000D+00
   227  2.2600000000000D+00  0.0000000000000D+00  0.0000000000000D+00
   228  2.2700000000000D+00  0.0000000000000D+00  0.0000000000000D+00
   229  2.2800000000000D+00  0.0000000000000D+00  0.0000000000000D+00
   230  2.2900000000000D+00  0.0000000000000D+00  0.0000000000000D+00
   231  2.3000000000000D+00  0.0000000000000D+00  0.0000000000000D+00
   232  2.3100000000000D+00  0.0000000000000D+00  0.0000000000000D+00
   233  2.3200000000000D+00  0.0000000000000D+00  0.0000000000000D+00
   234  2.3300000000000D+00  0.0000000000000D+00  0.0000000000000D+00
   235  2.3400000000000D+00  0.0000000000000D+00  0.0000000000000D+00
   236  2.3500000000000D+00  0.0000000000000D+00  0.0000000000000D+00
   237  2.3600000000000D+00  0.0000000000000D+00  0.0000000000000D+00
   238  2.3700000000000D+00  0.0000000000000D+00  0.0000000000000D+00
   239  2.3800000000000D+00  0.0000000000000D+00  0.0000000000000D+00
   240  2.3900000000000D+00  0.0000000000000D+00  0.0000000000000D+00
   241  2.4000000000000D+00  0.0000000000000D+00  0.0000000000000D+00
   242  2.4100000000000D+00  0.0000000000000D+00  0.0000000000000D+00
   243  2.4200000000000D+00  0.0000000000000D+00  0.0000000000000D+00
   244  2.4300000000000D+00  0.0000000000000D+00  0.0000000000000D+00
   245  2.4400000000000D+00  0.0000000000000D+00  0.0000000000000D+00
   246  2.4500000000000D+00  0.0000000000000D+00  0.0000000000000D+00
   247  2.4600000000000D+00  0.0000000000000D+00  0.0000000000000D+00
   248  2.4700000000000D+00  0.0000000000000D+00  0.0000000000000D+00
   249  2.4800000000000D+00  0.0000000000000D+00  0.0000000000000D+00
   250  2.4900000000000D+00  0.0000000000000D+00  0.0000000000000D+00
   251  2.5000000000000D+00  0.0000000000000D+00  0.0000000000000D+00
   252  2.5100000000000D+00  0.0000000000000D+00  0.0000000000000D+00
   253  2.5200000000000D+00  0.0000000000000D+00  0.0000000000000D+00
   254  2.5300000000000D+00  0.0000000000000D+00  0.0000000000000D+00
   255  2.5400000000000D+00  0.0000000000000D+00  0.0000000000000D+00
   256  2.5500000000000D+00  0.0000000000000D+00  0.0000000000000D+00
   257  2.5600000000000D+00  0.0000000000000D+00  0.0000000000000D+00
   258  2.5700000000000D+00  0.0000000000000D+00  0.0000000000000D+00
   259  2.5800000000000D+00  0.0000000000000D+00  0.0000000000000D+00
   260  2.5900000000000D+00  0.0000000000000D+00  0.0000000000000D+00
   261  2.6000000000000D+00  0.0000000000000D+00  0.0000000000000D+00
   262  2.6100000000000D+00  0.0000000000000D+00  0.0000000000000D+00
   263  2.6200000000000D+00  0.0000000000000D+00  0.0000000000000D+00
   264  2.6300000000000D+00  0.0000000000000D+00  0.0000000000000D+00
   265  2.6400000000000D+00  0.0000000000000D+00  0.0000000000000D+00
   266  2.6500000000000D+00  0.0000000000000D+00  0.0000000000000D+00
   267  2.6600000000000D+00  0.0000000000000D+00  0.0000000000000D+00
   268  2.6700000000000D+00  0.0000000000000D+00  0.0000000000000D+00
   269  2.6800000000000D+00  0.0000000000000D+00  0.0000000000000D+00
   270  2.6900000000000D+00  0.0000000000000D+00  0.0000000000000D+00
   271  2.7000000000000D+00  0.0000000000000D+00  0.0000000000000D+00
   272  2.7100000000000D+00  0.0000000000000D+00  0.0000000000000D+00
   273  2.7200000000000D+00  0.0000000000000D+00  0.0000000000000D+00
   274  2.7300000000000D+00  0.0000000000000D+00  0.0000000000000D+00
   275  2.7400000000000D+00  0.0000000000000D+00  0.0000000000000D+00
   276  2.7500000000000D+00  0.0000000000000D+00  0.0000000000000D+00
   277  2.7600000000000D+00  0.0000000000000D+00  0.0000000000000D+00
   278  2.7700000000000D+00  0.0000000000000D+00  0.0000000000000D+00
   279  2.7800000000000D+00  0.0000000000000D+00  0.0000000000000D+00
   280  2.7900000000000D+00  0.0000000000000D+00  0.0000000000000D+00
   281  2.8000000000000D+00  0.0000000000000D+00  0.0000000000000D+00
   282  2.8100000000000D+00  0.0000000000000D+00  0.0000000000000D+00
   283  2.8200000000000D+00  0.0000000000000D+00  0.0000000000000D+00
   284  2.8300000000000D+00  0.0000000000000D+00  0.0000000000000D+00
   285  2.8400000000000D+00  0.0000000000000D+00  0.0000000000000D+00
   286  2.8500000000000D+00  0.0000000000000D+00  0.0000000000000D+00
   287  2.8600000000000D+00  0.0000000000000D+00  0.0000000000000D+00
   288  2.8700000000000D+00  0.0000000000000D+00  0.0000000000000D+00
   289  2.8800000000000D+00  0.0000000000000D+00  0.0000000000000D+00
   290  2.8900000000000D+00  0.0000000000000D+00  0.0000000000000D+00
   291  2.9000000000000D+00  0.0000000000000D+00  0.0000000000000D+00
   292  2.9100000000000D+00  0.0000000000000D+00  0.0000000000000D+00
   293  2.9200000000000D+00  0.0000000000000D+00  0.0000000000000D+00
   294  2.9300000000000D+00  0.0000000000000D+00  0.0000000000000D+00
   295  2.9400000000000D+00  0.0000000000000D+00  0.0000000000000D+00
   296  2.9500000000000D+00  0.0000000000000D+00  0.0000000000000D+00
   297  2.9600000000000D+00  0.0000000000000D+00  0.0000000000000D+00
   298  2.9700000000000D+00  0.0000000000000D+00  0.0000000000000D+00
   299  2.9800000000000D+00  0.0000000000000D+00  0.0000000000000D+00
   300  2.9900000000000D+00  0.0000000000000D+00  0.0000000000000D+00
   301  3.0000000000000D+00  0.0000000000000D+00  0.0000000000000D+00
   302  3.0100000000000D+00  0.0000000000000D+00  0.0000000000000D+00
   303  3.0200000000000D+00  0.0000000000000D+00  0.0000000000000D+00
   304  3.0300000000000D+00  0.0000000000000D+00  0.0000000000000D+00
   305  3.0400000000000D+00  0.0000000000000D+00  0.0000000000000D+00
   306  3.0500000000000D+00  0.0000000000000D+00  0.0000000000000D+00
   307  3.0600000000000D+00  0.0000000000000D+00  0.0000000000000D+00
   308  3.0700000000000D+00  0.0000000000000D+00  0.0000000000000D+00
   309  3.0800000000000D+00  0.0000000000000D+00  0.0000000000000D+00
   310  3.0900000000000D+00  0.0000000000000D+00  0.0000000000000D+00
   311  3.1000000000000D+00  0.0000000000000D+00  0.0000000000000D+00
   312  3.1100000000000D+00  0.0000000000000D+00  0.0000000000000D+00
   313  3.1200000000000D+00  0.0000000000000D+00  0.0000000000000D+00
   314  3.1300000000000D+00  0.0000000000000D+00  0.0000000000000D+00
   315  3.1400000000000D+00  0.0000000000000D+00  0.0000000000000D+00
   316  3.1500000000000D+00  0.0000000000000D+00  0.0000000000000D+00
   317  3.1600000000000D+00  0.0000000000000D+00  0.0000000000000D+00
   318  3.1700000000000D+00  0.0000000000000D+00  0.0000000000000D+00
   319  3.1800000000000D+00  0.0000000000000D+00  0.0000000000000D+00
   320  3.1900000000000D+00  0.0000000000000D+00  0.0000000000000D+00
   321  3.2000000000000D+00  0.0000000000000D+00  0.0000000000000D+00
   322  3.2100000000000D+00  0.0000000000000D+00  0.0000000000000D+00
   323  3.2200000000000D+00  0.0000000000000D+00  0.0000000000000D+00
   324  3.2300000000000D+00  0.0000000000000D+00  0.0000000000000D+00
   325  3.2400000000000D+00  0.0000000000000D+00  0.0000000000000D+00
   326  3.2500000000000D+00  0.0000000000000D+00  0.0000000000000D+00
   327  3.2600000000000D+00  0.0000000000000D+00  0.0000000000000D+00
   328  3.2700000000000D+00  0.0000000000000D+00  0.0000000000000D+00
   329  3.2800000000000D+00  0.0000000000000D+00  0.0000000000000D+00
   330  3.2900000000000D+00  0.0000000000000D+00  0.0000000000000D+00
   331  3.3000000000000D+00  0.0000000000000D+00  0.0000000000000D+00
   332  3.3100000000000D+00  0.0000000000000D+00  0.0000000000000D+00
   333  3.3200000000000D+00  0.0000000000000D+00  0.0000000000000D+00
   334  3.3300000000000D+00  0.0000000000000D+00  0.0000000000000D+00
   335  3.3400000000000D+00  0.0000000000000D+00  0.0000000000000D+00
   336  3.3500000000000D+00  0.0000000000000D+00  0.0000000000000D+00
   337  3.3600000000000D+00  0.0000000000000D+00  0.0000000000000D+00
   338  3.3700000000000D+00  0.0000000000000D+00  0.0000000000000D+00
   339  3.3800000000000D+00  0.0000000000000D+00  0.0000000000000D+00
   340  3.3900000000000D+00  0.0000000000000D+00  0.0000000000000D+00
   341  3.4000000000000D+00  0.0000000000000D+00  0.0000000000000D+00
   342  3.4100000000000D+00  0.0000000000000D+00  0.0000000000000D+00
   343  3.4200000000000D+00  0.0000000000000D+00  0.0000000000000D+00
   344  3.4300000000000D+00  0.0000000000000D+00  0.0000000000000D+00
   345  3.4400000000000D+00  0.0000000000000D+00  0.0000000000000D+00
   346  3.4500000000000D+00  0.0000000000000D+00  0.0000000000000D+00
   347  3.4600000000000D+00  0.0000000000000D+00  0.0000000000000D+00
   348  3.4700000000000D+00  0.0000000000000D+00  0.0000000000000D+00
   349  3.4800000000000D+00  0.0000000000000D+00  0.0000000000000D+00
   350  3.4900000000000D+00  0.0000000000000D+00  0.0000000000000D+00
   351  3.5000000000000D+00  0.0000000000000D+00  0.0000000000000D+00
   352  3.5100000000000D+00  0.0000000000000D+00  0.0000000000000D+00
   353  3.5200000000000D+00  0.0000000000000D+00  0.0000000000000D+00
   354  3.5300000000000D+00  0.0000000000000D+00  0.0000000000000D+00
   355  3.5400000000000D+00  0.0000000000000D+00  0.0000000000000D+00
   356  3.5500000000000D+00  0.0000000000000D+00  0.0000000000000D+00
   357  3.5600000000000D+00  0.0000000000000D+00  0.0000000000000D+00
   358  3.5700000000000D+00  0.0000000000000D+00  0.0000000000000D+00
   359  3.5800000000000D+00  0.0000000000000D+00  0.0000000000000D+00
   360  3.5900000000000D+00  0.0000000000000D+00  0.0000000000000D+00
   361  3.6000000000000D+00  0.0000000000000D+00  0.0000000000000D+00
   362  3.6100000000000D+00  0.0000000000000D+00  0.0000000000000D+00
   363  3.6200000000000D+00  0.0000000000000D+00  0.0000000000000D+00
   364  3.6300000000000D+00  0.0000000000000D+00  0.0000000000000D+00
   365  3.6400000000000D+00  0.0000000000000D+00  0.0000000000000D+00
   366  3.6500000000000D+00  0.0000000000000D+00  0.0000000000000D+00
   367  3.6600000000000D+00  0.0000000000000D+00  0.0000000000000D+00
   368  3.6700000000000D+00  0.0000000000000D+00  0.0000000000000D+00
   369  3.6800000000000D+00  0.0000000000000D+00  0.0000000000000D+00
   370  3.6900000000000D+00  0.0000000000000D+00  0.0000000000000D+00
   371  3.7000000000000D+00  0.0000000000000D+00  0.0000000000000D+00
   372  3.7100000000000D+00  0.0000000000000D+00  0.0000000000000D+00
   373  3.7200000000000D+00  0.0000000000000D+00  0.0000000000000D+00
   374  3.7300000000000D+00  0.0000000000000D+00  0.0000000000000D+00
   375  3.7400000000000D+00  0.0000000000000D+00  0.0000000000000D+00
   376  3.7500000000000D+00  0.0000000000000D+00  0.0000000000000D+00
   377  3.7600000000000D+00  0.0000000000000D+00  0.0000000000000D+00
   378  3.7700000000000D+00  0.0000000000000D+00  0.0000000000000D+00
   379  3.7800000000000D+00  0.0000000000000D+00  0.0000000000000D+00
   380  3.7900000000000D+00  0.0000000000000D+00  0.0000000000000D+00
   381  3.8000000000000D+00  0.0000000000000D+00  0.0000000000000D+00
   382  3.8100000000000D+00  0.0000000000000D+00  0.0000000000000D+00
   383  3.8200000000000D+00  0.0000000000000D+00  0.0000000000000D+00
   384  3.8300000000000D+00  0.0000000000000D+00  0.0000000000000D+00
   385  3.8400000000000D+00  0.0000000000000D+00  0.0000000000000D+00
   386  3.8500000000000D+00  0.0000000000000D+00  0.0000000000000D+00
   387  3.8600000000000D+00  0.0000000000000D+00  0.0000000000000D+00
   388  3.8700000000000D+00  0.0000000000000D+00  0.0000000000000D+00
   389  3.8800000000000D+00  0.0000000000000D+00  0.0000000000000D+00
   390  3.8900000000000D+00  0.0000000000000D+00  0.0000000000000D+00
   391  3.9000000000000D+00  0.0000000000000D+00  0.0000000000000D+00
   392  3.9100000000000D+00  0.0000000000000D+00  0.0000000000000D+00
   393  3.9200000000000D+00  0.0000000000000D+00  0.0000000000000D+00
   394  3.9300000000000D+00  0.0000000000000D+00  0.0000000000000D+00
   395  3.9400000000000D+00  0.0000000000000D+00  0.0000000000000D+00
   396  3.9500000000000D+00  0.0000000000000D+00  0.0000000000000D+00
   397  3.9600000000000D+00  0.0000000000000D+00  0.0000000000000D+00
   398  3.9700000000000D+00  0.0000000000000D+00  0.0000000000000D+00
   399  3.9800000000000D+00  0.0000000000000D+00  0.0000000000000D+00
   400  3.9900000000000D+00  0.0000000000000D+00  0.0000000000000D+00
   401  4.0000000000000D+00  0.0000000000000D+00  0.0000000000000D+00
   402  4.0100000000000D+00  0.0000000000000D+00  0.0000000000000D+00
   403  4.0200000000000D+00  0.0000000000000D+00  0.0000000000000D+00
   404  4.0300000000000D+00  0.0000000000000D+00  0.0000000000000D+00
   405  4.0400000000000D+00  0.0000000000000D+00  0.0000000000000D+00
   406  4.0500000000000D+00  0.0000000000000D+00  0.0000000000000D+00
   407  4.0600000000000D+00  0.0000000000000D+00  0.0000000000000D+00
   408  4.0700000000000D+00  0.0000000000000D+00  0.0000000000000D+00
   409  4.0800000000000D+00  0.0000000000000D+00  0.0000000000000D+00
   410  4.0900000000000D+00  0.0000000000000D+00  0.0000000000000D+00
   411  4.1000000000000D+00  0.0000000000000D+00  0.0000000000000D+00
   412  4.1100000000000D+00  0.0000000000000D+00  0.0000000000000D+00
   413  4.1200000000000D+00  0.0000000000000D+00  0.0000000000000D+00
   414  4.1300000000000D+00  0.0000000000000D+00  0.0000000000000D+00
   415  4.1400000000000D+00  0.0000000000000D+00  0.0000000000000D+00
   416  4.1500000000000D+00  0.0000000000000D+00  0.0000000000000D+00
   417  4.1600000000000D+00  0.0000000000000D+00  0.0000000000000D+00
   418  4.1700000000000D+00  0.0000000000000D+00  0.0000000000000D+00
   419  4.1800000000000D+00  0.0000000000000D+00  0.0000000000000D+00
   420  4.1900000000000D+00  0.0000000000000D+00  0.0000000000000D+00
   421  4.2000000000000D+00  0.0000000000000D+00  0.0000000000000D+00
   422  4.2100000000000D+00  0.0000000000000D+00  0.0000000000000D+00