Ba    ONCVPSP-3.3.0  r_core=   2.15444   1.91218   2.15444
     56.0000     10.0000      220117    zatom,zion,pspd
     8      11   2     4   600     0    pspcod,pspxc,lmax,lloc,mmax,r2well
  5.99000000  0.00000000  0.00000000    rchrg fchrg qchrg
     2     2     2     0     0    nproj
     1     1           extension_switch
   0                         6.6678684059242D+00  6.7431880525566D-01
     1  0.0000000000000D+00  5.8080484865997D-12 -1.6904798524550D-11
     2  1.0000000000000D-02  2.6414244398253D-02  2.8452882547672D-04
     3  2.0000000000000D-02  5.2831185363298D-02  5.2792191528023D-04
     4  3.0000000000000D-02  7.9253434232577D-02  6.8929780113341D-04
     5  4.0000000000000D-02  1.0568343227375D-01  7.2828243123874D-04
     6  5.0000000000000D-02  1.3212336662064D-01  6.0526008699272D-04
     7  6.0000000000000D-02  1.5857508737013D-01  2.8162096180259D-04
     8  7.0000000000000D-02  1.8504002622005D-01 -2.7999569077585D-04
     9  8.0000000000000D-02  2.1151911702258D-01 -1.1154639154557D-03
    10  9.0000000000000D-02  2.3801271862009D-01 -2.2589399749760D-03
    11  1.0000000000000D-01  2.6452054032205D-01 -3.7426388609032D-03
    12  1.1000000000000D-01  2.9104157037141D-01 -5.5966193960691D-03
    13  1.2000000000000D-01  3.1757400773769D-01 -7.8485788962172D-03
    14  1.3000000000000D-01  3.4411519756130D-01 -1.0523658321806D-02
    15  1.4000000000000D-01  3.7066157055976D-01 -1.3644258810297D-02
    16  1.5000000000000D-01  3.9720858669150D-01 -1.7229870435526D-02
    17  1.6000000000000D-01  4.2375068335647D-01 -2.1296913993297D-02
    18  1.7000000000000D-01  4.5028122839575D-01 -2.5858596561930D-02
    19  1.8000000000000D-01  4.7679247813365D-01 -3.0924781532729D-02
    20  1.9000000000000D-01  5.0327554068668D-01 -3.6501873749117D-02
    21  2.0000000000000D-01  5.2972034474331D-01 -4.2592720333864D-02
    22  2.1000000000000D-01  5.5611561399740D-01 -4.9196527722234D-02
    23  2.2000000000000D-01  5.8244884739622D-01 -5.6308795355111D-02
    24  2.3000000000000D-01  6.0870630534138D-01 -6.3921266420120D-02
    25  2.4000000000000D-01  6.3487300195781D-01 -7.2021895960959D-02
    26  2.5000000000000D-01  6.6093270352198D-01 -8.0594836606002D-02
    27  2.6000000000000D-01  6.8686793311659D-01 -8.9620442096341D-02
    28  2.7000000000000D-01  7.1265998155402D-01 -9.9075288721740D-02
    29  2.8000000000000D-01  7.3828892458628D-01 -1.0893221470048D-01
    30  2.9000000000000D-01  7.6373364639368D-01 -1.1916037746571D-01
    31  3.0000000000000D-01  7.8897186931980D-01 -1.2972532874750D-01
    32  3.1000000000000D-01  8.1398018979448D-01 -1.4058910726654D-01
    33  3.2000000000000D-01  8.3873412036195D-01 -1.5171034878159D-01
    34  3.3000000000000D-01  8.6320813770595D-01 -1.6304441316067D-01
    35  3.4000000000000D-01  8.8737573653902D-01 -1.7454352807373D-01
    36  3.5000000000000D-01  9.1120948919890D-01 -1.8615694883343D-01
    37  3.6000000000000D-01  9.3468111077097D-01 -1.9783113384178D-01
    38  3.7000000000000D-01  9.5776152953221D-01 -2.0950993503164D-01
    39  3.8000000000000D-01  9.8042096248978D-01 -2.2113480262703D-01
    40  3.9000000000000D-01  1.0026289957648D+00 -2.3264500348131D-01
    41  4.0000000000000D-01  1.0243546695510D+00 -2.4397785219191D-01
    42  4.1000000000000D-01  1.0455665673581D+00 -2.5506895413083D-01
    43  4.2000000000000D-01  1.0662329092286D+00 -2.6585245947465D-01
    44  4.3000000000000D-01  1.0863216486014D+00 -2.7626132726531D-01
    45  4.4000000000000D-01  1.1058005724757D+00 -2.8622759848336D-01
    46  4.5000000000000D-01  1.1246374045135D+00 -2.9568267707036D-01
    47  4.6000000000000D-01  1.1427999107061D+00 -3.0455761779515D-01
    48  4.7000000000000D-01  1.1602560072143D+00 -3.1278341982090D-01
    49  4.8000000000000D-01  1.1769738699806D+00 -3.2029132479715D-01
    50  4.9000000000000D-01  1.1929220457030D+00 -3.2701311827151D-01
    51  5.0000000000000D-01  1.2080695637496D+00 -3.3288143319161D-01
    52  5.1000000000000D-01  1.2223860485845D+00 -3.3783005424838D-01
    53  5.2000000000000D-01  1.2358418322741D+00 -3.4179422179688D-01
    54  5.3000000000000D-01  1.2484080666338D+00 -3.4471093408116D-01
    55  5.4000000000000D-01  1.2600568345759D+00 -3.4651924648512D-01
    56  5.5000000000000D-01  1.2707612602180D+00 -3.4716056653140D-01
    57  5.6000000000000D-01  1.2804956173118D+00 -3.4657894335662D-01
    58  5.7000000000000D-01  1.2892354355550D+00 -3.4472135040146D-01
    59  5.8000000000000D-01  1.2969576043543D+00 -3.4153796007099D-01
    60  5.9000000000000D-01  1.3036404736123D+00 -3.3698240914106D-01
    61  6.0000000000000D-01  1.3092639511205D+00 -3.3101205371446D-01
    62  6.1000000000000D-01  1.3138095961489D+00 -3.2358821256088D-01
    63  6.2000000000000D-01  1.3172607088350D+00 -3.1467639771274D-01
    64  6.3000000000000D-01  1.3196024149878D+00 -3.0424653123029D-01
    65  6.4000000000000D-01  1.3208217459361D+00 -2.9227314709568D-01
    66  6.5000000000000D-01  1.3209077130678D+00 -2.7873557724854D-01
    67  6.6000000000000D-01  1.3198513767240D+00 -2.6361812082981D-01
    68  6.7000000000000D-01  1.3176459091310D+00 -2.4691019576274D-01
    69  6.8000000000000D-01  1.3142866510729D+00 -2.2860647186345D-01
    70  6.9000000000000D-01  1.3097711620315D+00 -2.0870698474305D-01
    71  7.0000000000000D-01  1.3040992635418D+00 -1.8721722983449D-01
    72  7.1000000000000D-01  1.2972730755345D+00 -1.6414823595466D-01
    73  7.2000000000000D-01  1.2892970454668D+00 -1.3951661789010D-01
    74  7.3000000000000D-01  1.2801779700629D+00 -1.1334460757736D-01
    75  7.4000000000000D-01  1.2699250095193D+00 -8.5660063533182D-02
    76  7.5000000000000D-01  1.2585496940523D+00 -5.6496458276830D-02
    77  7.6000000000000D-01  1.2460659226993D+00 -2.5892843575458D-02
    78  7.7000000000000D-01  1.2324899543095D+00  6.1062065663664D-03
    79  7.8000000000000D-01  1.2178403906942D+00  3.9450675160120D-02
    80  7.9000000000000D-01  1.2021381519337D+00  7.4085203625007D-02
    81  8.0000000000000D-01  1.1854064438700D+00  1.0994921511992D-01
    82  8.1000000000000D-01  1.1676707178434D+00  1.4697705952532D-01
    83  8.2000000000000D-01  1.1489586227634D+00  1.8509817969213D-01
    84  8.3000000000000D-01  1.1292999496331D+00  2.2423729848298D-01
    85  8.4000000000000D-01  1.1087265686768D+00  2.6431462604105D-01
    86  8.5000000000000D-01  1.0872723592497D+00  3.0524608663240D-01
    87  8.6000000000000D-01  1.0649731327380D+00  3.4694356432081D-01
    88  8.7000000000000D-01  1.0418665486867D+00  3.8931516665024D-01
    89  8.8000000000000D-01  1.0179920244179D+00  4.3226550542703D-01
    90  8.9000000000000D-01  9.9339063843076D-01  4.7569599361649D-01
    91  9.0000000000000D-01  9.6810502790079D-01  5.1950515729283D-01
    92  9.1000000000000D-01  9.4217928061688D-01  5.6358896150987D-01
    93  9.2000000000000D-01  9.1565882172232D-01  6.0784114889373D-01
    94  9.3000000000000D-01  8.8859029564448D-01  6.5215358969552D-01
    95  9.4000000000000D-01  8.6102144361995D-01  6.9641664198498D-01
    96  9.5000000000000D-01  8.3300097724013D-01  7.4051952061352D-01
    97  9.6000000000000D-01  8.0457844845964D-01  7.8435067352816D-01
    98  9.7000000000000D-01  7.7580411652534D-01  8.2779816397679D-01
    99  9.8000000000000D-01  7.4672881229738D-01  8.7075005711011D-01
   100  9.9000000000000D-01  7.1740380044548D-01  9.1309480945642D-01
   101  1.0000000000000D+00  6.8788064001339D-01  9.5472165972296D-01
   102  1.0100000000000D+00  6.5821104385237D-01  9.9552101936135D-01
   103  1.0200000000000D+00  6.2844673743037D-01  1.0353848613251D+00
   104  1.0300000000000D+00  5.9863931752716D-01  1.0742071054444D+00
   105  1.0400000000000D+00  5.6884011132741D-01  1.1118839988483D+00
   106  1.0500000000000D+00  5.3910003642297D-01  1.1483144898736D+00
   107  1.0600000000000D+00  5.0946946223323D-01  1.1834005939206D+00
   108  1.0700000000000D+00  4.7999807334764D-01  1.2170477497365D+00
   109  1.0800000000000D+00  4.5073473528727D-01  1.2491651646420D+00
   110  1.0900000000000D+00  4.2172736317390D-01  1.2796661472535D+00
   111  1.1000000000000D+00  3.9302279378300D-01  1.3084684263000D+00
   112  1.1100000000000D+00  3.6466666144515D-01  1.3354944541810D+00
   113  1.1200000000000D+00  3.3670327824508D-01  1.3606716939703D+00
   114  1.1300000000000D+00  3.0917551894979D-01  1.3839328886389D+00
   115  1.1400000000000D+00  2.8212471107861D-01  1.4052163113332D+00
   116  1.1500000000000D+00  2.5559053050772D-01  1.4244659956255D+00
   117  1.1600000000000D+00  2.2961090298123D-01  1.4416319447212D+00
   118  1.1700000000000D+00  2.0422191187315D-01  1.4566703187083D+00
   119  1.1800000000000D+00  1.7945771252014D-01  1.4695435990227D+00
   120  1.1900000000000D+00  1.5535045342260D-01  1.4802207293749D+00
   121  1.2000000000000D+00  1.3193020457930D-01  1.4886772325032D+00
   122  1.2100000000000D+00  1.0922489319098D-01  1.4948953022166D+00
   123  1.2200000000000D+00  8.7260246937780D-02  1.4988638702947D+00
   124  1.2300000000000D+00  6.6059745015351D-02  1.5005786478843D+00
   125  1.2400000000000D+00  4.5644577065273D-02  1.5000421411937D+00
   126  1.2500000000000D+00  2.6033610107182D-02  1.4972636413862D+00
   127  1.2600000000000D+00  7.2433635684421D-03  1.4922591886071D+00
   128  1.2700000000000D+00 -1.0712007557588D-02  1.4850515103005D+00
   129  1.2800000000000D+00 -2.7820721416282D-02  1.4756699340421D+00
   130  1.2900000000000D+00 -4.4073369860110D-02  1.4641502751465D+00
   131  1.3000000000000D+00 -5.9462910951317D-02  1.4505346995382D+00
   132  1.3100000000000D+00 -7.3984653492865D-02  1.4348715624462D+00
   133  1.3200000000000D+00 -8.7636233677633D-02  1.4172152234761D+00
   134  1.3300000000000D+00 -1.0041758403632D-01  1.3976258389000D+00
   135  1.3400000000000D+00 -1.1233089486027D-01  1.3761691319903D+00
   136  1.3500000000000D+00 -1.2338056828973D-01  1.3529161422726D+00
   137  1.3600000000000D+00 -1.3357316534195D-01  1.3279429548338D+00
   138  1.3700000000000D+00 -1.4291734612510D-01  1.3013304107312D+00
   139  1.3800000000000D+00 -1.5142380353285D-01  1.2731637997042D+00
   140  1.3900000000000D+00 -1.5910519076636D-01  1.2435325365412D+00
   141  1.4000000000000D+00 -1.6597604298753D-01  1.2125298223299D+00
   142  1.4100000000000D+00 -1.7205269350532D-01  1.1802522921080D+00
   143  1.4200000000000D+00 -1.7735318486616D-01  1.1467996503363D+00
   144  1.4300000000000D+00 -1.8189717524299D-01  1.1122742956917D+00
   145  1.4400000000000D+00 -1.8570584057187D-01  1.0767809368139D+00
   146  1.4500000000000D+00 -1.8880177283495D-01  1.0404262005167D+00
   147  1.4600000000000D+00 -1.9120887496865D-01  1.0033182341717D+00
   148  1.4700000000000D+00 -1.9295225283298D-01  9.6556630385736D-01
   149  1.4800000000000D+00 -1.9405810471562D-01  9.2728038997501D-01
   150  1.4900000000000D+00 -1.9455360883857D-01  8.8857078196121D-01
   151  1.5000000000000D+00 -1.9446680934091D-01  8.4954767381573D-01
   152  1.5100000000000D+00 -1.9382650120869D-01  8.1032076202674D-01
   153  1.5200000000000D+00 -1.9266211463081D-01  7.7099884761249D-01
   154  1.5300000000000D+00 -1.9100359924327D-01  7.3168944381741D-01
   155  1.5400000000000D+00 -1.8888130872564D-01  6.9249839107120D-01
   156  1.5500000000000D+00 -1.8632588621615D-01  6.5352948077708D-01
   157  1.5600000000000D+00 -1.8336815095874D-01  6.1488408928893D-01
   158  1.5700000000000D+00 -1.8003898667153D-01  5.7666082374407D-01
   159  1.5800000000000D+00 -1.7636923196400D-01  5.3895518073970D-01
   160  1.5900000000000D+00 -1.7238957333184D-01  5.0185921967483D-01
   161  1.6000000000000D+00 -1.6813044094346D-01  4.6546125128682D-01
   162  1.6100000000000D+00 -1.6362190778426D-01  4.2984554333943D-01
   163  1.6200000000000D+00 -1.5889359227324D-01  3.9509204360572D-01
   164  1.6300000000000D+00 -1.5397456490095D-01  3.6127612201771D-01
   165  1.6400000000000D+00 -1.4889325894984D-01  3.2846833193137D-01
   166  1.6500000000000D+00 -1.4367738578836D-01  2.9673419213809D-01
   167  1.6600000000000D+00 -1.3835385475503D-01  2.6613398941150D-01
   168  1.6700000000000D+00 -1.3294869805906D-01  2.3672260295963D-01
   169  1.6800000000000D+00 -1.2748700066089D-01  2.0854935038198D-01
   170  1.6900000000000D+00 -1.2199283549924D-01  1.8165785626293D-01
   171  1.7000000000000D+00 -1.1648920395912D-01  1.5608594275332D-01
   172  1.7100000000000D+00 -1.1099798190221D-01  1.3186554309187D-01
   173  1.7200000000000D+00 -1.0553987106203D-01  1.0902263708753D-01
   174  1.7300000000000D+00 -1.0013435610364D-01  8.7577209423508D-02
   175  1.7400000000000D+00 -9.4799667030244D-02  6.7543229373946D-02
   176  1.7500000000000D+00 -8.9552747244489D-02  4.8928652811971D-02
   177  1.7600000000000D+00 -8.4409226796649D-02  3.1735444568135D-02
   178  1.7700000000000D+00 -7.9383401167466D-02  1.5959622145120D-02
   179  1.7800000000000D+00 -7.4488214942193D-02  1.5913182377838D-03
   180  1.7900000000000D+00 -6.9735250786234D-02 -1.1385136736990D-02
   181  1.8000000000000D+00 -6.5134722903871D-02 -2.2991115244285D-02
   182  1.8100000000000D+00 -6.0695475418754D-02 -3.3253575096752D-02
   183  1.8200000000000D+00 -5.6424984796756D-02 -4.2204927104666D-02
   184  1.8300000000000D+00 -5.2329366605920D-02 -4.9882887175090D-02
   185  1.8400000000000D+00 -4.8413385863113D-02 -5.6330315699746D-02
   186  1.8500000000000D+00 -4.4680469913726D-02 -6.1595049411994D-02
   187  1.8600000000000D+00 -4.1132729272455D-02 -6.5729700383561D-02
   188  1.8700000000000D+00 -3.7770969928070D-02 -6.8791497183176D-02
   189  1.8800000000000D+00 -3.4594721983411D-02 -7.0842057071391D-02
   190  1.8900000000000D+00 -3.1602290315796D-02 -7.1947061219199D-02
   191  1.9000000000000D+00 -2.8790736111387D-02 -7.2176234873429D-02
   192  1.9100000000000D+00 -2.6155798425481D-02 -7.1603638060978D-02
   193  1.9200000000000D+00 -2.3692217260961D-02 -7.0306086430841D-02
   194  1.9300000000000D+00 -2.1393904869869D-02 -6.8362258888147D-02
   195  1.9400000000000D+00 -1.9254176319323D-02 -6.5851643102441D-02
   196  1.9500000000000D+00 -1.7266065451331D-02 -6.2853094005729D-02
   197  1.9600000000000D+00 -1.5422505648313D-02 -5.9444024599830D-02
   198  1.9700000000000D+00 -1.3716341979952D-02 -5.5700389760662D-02
   199  1.9800000000000D+00 -1.2140383584465D-02 -5.1696505460973D-02
   200  1.9900000000000D+00 -1.0687549695732D-02 -4.7504398653156D-02
   201  2.0000000000000D+00 -9.3509334662101D-03 -4.3193559839178D-02
   202  2.0100000000000D+00 -8.1238906765461D-03 -3.8830574294057D-02
   203  2.0200000000000D+00 -7.0001204310779D-03 -3.4478790515326D-02
   204  2.0300000000000D+00 -5.9737414392235D-03 -3.0198008264243D-02
   205  2.0400000000000D+00 -5.0393646337747D-03 -2.6044182034650D-02
   206  2.0500000000000D+00 -4.1921624402564D-03 -2.2069138984726D-02
   207  2.0600000000000D+00 -3.4279304598694D-03 -1.8320328584629D-02
   208  2.0700000000000D+00 -2.7431448140170D-03 -1.4840590601260D-02
   209  2.0800000000000D+00 -2.1350970345698D-03 -1.1668407667778D-02
   210  2.0900000000000D+00 -1.6020674886271D-03 -8.8384277841857D-03
   211  2.1000000000000D+00 -1.1417823057902D-03 -6.3723659824241D-03
   212  2.1100000000000D+00 -7.5271418055244D-04 -4.2833886525032D-03
   213  2.1200000000000D+00 -4.3847260043835D-04 -2.6100182281895D-03
   214  2.1300000000000D+00 -2.0395666459040D-04 -1.3895084346499D-03
   215  2.1400000000000D+00 -5.0358522485374D-05 -6.2839545789811D-04
   216  2.1500000000000D+00  3.0080590527000D-05 -2.1991057302598D-04
   217  2.1600000000000D+00  4.8863687586071D-05 -4.2239560441685D-05
   218  2.1700000000000D+00  2.9422116862707D-05  7.6159246668109D-06
   219  2.1800000000000D+00  7.3994479040747D-07  4.8241693745494D-07
   220  2.1900000000000D+00 -8.9895922558973D-06 -7.9465829618969D-06
   221  2.2000000000000D+00 -5.5948693449842D-06 -5.8629199514383D-06
   222  2.2100000000000D+00  8.9104296579366D-07  3.8877403425391D-07
   223  2.2200000000000D+00  1.8426762413438D-06  9.9330135359233D-07
   224  2.2300000000000D+00  5.8199411937197D-07  3.6027958905755D-07
   225  2.2400000000000D+00 -1.0274896281086D-07  2.7434321474743D-07
   226  2.2500000000000D+00 -1.1388197654913D-07  3.0406873893016D-07
   227  2.2600000000000D+00  0.0000000000000D+00  0.0000000000000D+00
   228  2.2700000000000D+00  0.0000000000000D+00  0.0000000000000D+00
   229  2.2800000000000D+00  0.0000000000000D+00  0.0000000000000D+00
   230  2.2900000000000D+00  0.0000000000000D+00  0.0000000000000D+00
   231  2.3000000000000D+00  0.0000000000000D+00  0.0000000000000D+00
   232  2.3100000000000D+00  0.0000000000000D+00  0.0000000000000D+00
   233  2.3200000000000D+00  0.0000000000000D+00  0.0000000000000D+00
   234  2.3300000000000D+00  0.0000000000000D+00  0.0000000000000D+00
   235  2.3400000000000D+00  0.0000000000000D+00  0.0000000000000D+00
   236  2.3500000000000D+00  0.0000000000000D+00  0.0000000000000D+00
   237  2.3600000000000D+00  0.0000000000000D+00  0.0000000000000D+00
   238  2.3700000000000D+00  0.0000000000000D+00  0.0000000000000D+00
   239  2.3800000000000D+00  0.0000000000000D+00  0.0000000000000D+00
   240  2.3900000000000D+00  0.0000000000000D+00  0.0000000000000D+00
   241  2.4000000000000D+00  0.0000000000000D+00  0.0000000000000D+00
   242  2.4100000000000D+00  0.0000000000000D+00  0.0000000000000D+00
   243  2.4200000000000D+00  0.0000000000000D+00  0.0000000000000D+00
   244  2.4300000000000D+00  0.0000000000000D+00  0.0000000000000D+00
   245  2.4400000000000D+00  0.0000000000000D+00  0.0000000000000D+00
   246  2.4500000000000D+00  0.0000000000000D+00  0.0000000000000D+00
   247  2.4600000000000D+00  0.0000000000000D+00  0.0000000000000D+00
   248  2.4700000000000D+00  0.0000000000000D+00  0.0000000000000D+00
   249  2.4800000000000D+00  0.0000000000000D+00  0.0000000000000D+00
   250  2.4900000000000D+00  0.0000000000000D+00  0.0000000000000D+00
   251  2.5000000000000D+00  0.0000000000000D+00  0.0000000000000D+00
   252  2.5100000000000D+00  0.0000000000000D+00  0.0000000000000D+00
   253  2.5200000000000D+00  0.0000000000000D+00  0.0000000000000D+00
   254  2.5300000000000D+00  0.0000000000000D+00  0.0000000000000D+00
   255  2.5400000000000D+00  0.0000000000000D+00  0.0000000000000D+00
   256  2.5500000000000D+00  0.0000000000000D+00  0.0000000000000D+00
   257  2.5600000000000D+00  0.0000000000000D+00  0.0000000000000D+00
   258  2.5700000000000D+00  0.0000000000000D+00  0.0000000000000D+00
   259  2.5800000000000D+00  0.0000000000000D+00  0.0000000000000D+00
   260  2.5900000000000D+00  0.0000000000000D+00  0.0000000000000D+00
   261  2.6000000000000D+00  0.0000000000000D+00  0.0000000000000D+00
   262  2.6100000000000D+00  0.0000000000000D+00  0.0000000000000D+00
   263  2.6200000000000D+00  0.0000000000000D+00  0.0000000000000D+00
   264  2.6300000000000D+00  0.0000000000000D+00  0.0000000000000D+00
   265  2.6400000000000D+00  0.0000000000000D+00  0.0000000000000D+00
   266  2.6500000000000D+00  0.0000000000000D+00  0.0000000000000D+00
   267  2.6600000000000D+00  0.0000000000000D+00  0.0000000000000D+00
   268  2.6700000000000D+00  0.0000000000000D+00  0.0000000000000D+00
   269  2.6800000000000D+00  0.0000000000000D+00  0.0000000000000D+00
   270  2.6900000000000D+00  0.0000000000000D+00  0.0000000000000D+00
   271  2.7000000000000D+00  0.0000000000000D+00  0.0000000000000D+00
   272  2.7100000000000D+00  0.0000000000000D+00  0.0000000000000D+00
   273  2.7200000000000D+00  0.0000000000000D+00  0.0000000000000D+00
   274  2.7300000000000D+00  0.0000000000000D+00  0.0000000000000D+00
   275  2.7400000000000D+00  0.0000000000000D+00  0.0000000000000D+00
   276  2.7500000000000D+00  0.0000000000000D+00  0.0000000000000D+00
   277  2.7600000000000D+00  0.0000000000000D+00  0.0000000000000D+00
   278  2.7700000000000D+00  0.0000000000000D+00  0.0000000000000D+00
   279  2.7800000000000D+00  0.0000000000000D+00  0.0000000000000D+00
   280  2.7900000000000D+00  0.0000000000000D+00  0.0000000000000D+00
   281  2.8000000000000D+00  0.0000000000000D+00  0.0000000000000D+00
   282  2.8100000000000D+00  0.0000000000000D+00  0.0000000000000D+00
   283  2.8200000000000D+00  0.0000000000000D+00  0.0000000000000D+00
   284  2.8300000000000D+00  0.0000000000000D+00  0.0000000000000D+00
   285  2.8400000000000D+00  0.0000000000000D+00  0.0000000000000D+00
   286  2.8500000000000D+00  0.0000000000000D+00  0.0000000000000D+00
   287  2.8600000000000D+00  0.0000000000000D+00  0.0000000000000D+00
   288  2.8700000000000D+00  0.0000000000000D+00  0.0000000000000D+00
   289  2.8800000000000D+00  0.0000000000000D+00  0.0000000000000D+00
   290  2.8900000000000D+00  0.0000000000000D+00  0.0000000000000D+00
   291  2.9000000000000D+00  0.0000000000000D+00  0.0000000000000D+00
   292  2.9100000000000D+00  0.0000000000000D+00  0.0000000000000D+00
   293  2.9200000000000D+00  0.0000000000000D+00  0.0000000000000D+00
   294  2.9300000000000D+00  0.0000000000000D+00  0.0000000000000D+00
   295  2.9400000000000D+00  0.0000000000000D+00  0.0000000000000D+00
   296  2.9500000000000D+00  0.0000000000000D+00  0.0000000000000D+00
   297  2.9600000000000D+00  0.0000000000000D+00  0.0000000000000D+00
   298  2.9700000000000D+00  0.0000000000000D+00  0.0000000000000D+00
   299  2.9800000000000D+00  0.0000000000000D+00  0.0000000000000D+00
   300  2.9900000000000D+00  0.0000000000000D+00  0.0000000000000D+00
   301  3.0000000000000D+00  0.0000000000000D+00  0.0000000000000D+00
   302  3.0100000000000D+00  0.0000000000000D+00  0.0000000000000D+00
   303  3.0200000000000D+00  0.0000000000000D+00  0.0000000000000D+00
   304  3.0300000000000D+00  0.0000000000000D+00  0.0000000000000D+00
   305  3.0400000000000D+00  0.0000000000000D+00  0.0000000000000D+00
   306  3.0500000000000D+00  0.0000000000000D+00  0.0000000000000D+00
   307  3.0600000000000D+00  0.0000000000000D+00  0.0000000000000D+00
   308  3.0700000000000D+00  0.0000000000000D+00  0.0000000000000D+00
   309  3.0800000000000D+00  0.0000000000000D+00  0.0000000000000D+00
   310  3.0900000000000D+00  0.0000000000000D+00  0.0000000000000D+00
   311  3.1000000000000D+00  0.0000000000000D+00  0.0000000000000D+00
   312  3.1100000000000D+00  0.0000000000000D+00  0.0000000000000D+00
   313  3.1200000000000D+00  0.0000000000000D+00  0.0000000000000D+00
   314  3.1300000000000D+00  0.0000000000000D+00  0.0000000000000D+00
   315  3.1400000000000D+00  0.0000000000000D+00  0.0000000000000D+00
   316  3.1500000000000D+00  0.0000000000000D+00  0.0000000000000D+00
   317  3.1600000000000D+00  0.0000000000000D+00  0.0000000000000D+00
   318  3.1700000000000D+00  0.0000000000000D+00  0.0000000000000D+00
   319  3.1800000000000D+00  0.0000000000000D+00  0.0000000000000D+00
   320  3.1900000000000D+00  0.0000000000000D+00  0.0000000000000D+00
   321  3.2000000000000D+00  0.0000000000000D+00  0.0000000000000D+00
   322  3.2100000000000D+00  0.0000000000000D+00  0.0000000000000D+00
   323  3.2200000000000D+00  0.0000000000000D+00  0.0000000000000D+00
   324  3.2300000000000D+00  0.0000000000000D+00  0.0000000000000D+00
   325  3.2400000000000D+00  0.0000000000000D+00  0.0000000000000D+00
   326  3.2500000000000D+00  0.0000000000000D+00  0.0000000000000D+00
   327  3.2600000000000D+00  0.0000000000000D+00  0.0000000000000D+00
   328  3.2700000000000D+00  0.0000000000000D+00  0.0000000000000D+00
   329  3.2800000000000D+00  0.0000000000000D+00  0.0000000000000D+00
   330  3.2900000000000D+00  0.0000000000000D+00  0.0000000000000D+00
   331  3.3000000000000D+00  0.0000000000000D+00  0.0000000000000D+00
   332  3.3100000000000D+00  0.0000000000000D+00  0.0000000000000D+00
   333  3.3200000000000D+00  0.0000000000000D+00  0.0000000000000D+00
   334  3.3300000000000D+00  0.0000000000000D+00  0.0000000000000D+00
   335  3.3400000000000D+00  0.0000000000000D+00  0.0000000000000D+00
   336  3.3500000000000D+00  0.0000000000000D+00  0.0000000000000D+00
   337  3.3600000000000D+00  0.0000000000000D+00  0.0000000000000D+00
   338  3.3700000000000D+00  0.0000000000000D+00  0.0000000000000D+00
   339  3.3800000000000D+00  0.0000000000000D+00  0.0000000000000D+00
   340  3.3900000000000D+00  0.0000000000000D+00  0.0000000000000D+00
   341  3.4000000000000D+00  0.0000000000000D+00  0.0000000000000D+00
   342  3.4100000000000D+00  0.0000000000000D+00  0.0000000000000D+00
   343  3.4200000000000D+00  0.0000000000000D+00  0.0000000000000D+00
   344  3.4300000000000D+00  0.0000000000000D+00  0.0000000000000D+00
   345  3.4400000000000D+00  0.0000000000000D+00  0.0000000000000D+00
   346  3.4500000000000D+00  0.0000000000000D+00  0.0000000000000D+00
   347  3.4600000000000D+00  0.0000000000000D+00  0.0000000000000D+00
   348  3.4700000000000D+00  0.0000000000000D+00  0.0000000000000D+00
   349  3.4800000000000D+00  0.0000000000000D+00  0.0000000000000D+00
   350  3.4900000000000D+00  0.0000000000000D+00  0.0000000000000D+00
   351  3.5000000000000D+00  0.0000000000000D+00  0.0000000000000D+00
   352  3.5100000000000D+00  0.0000000000000D+00  0.0000000000000D+00
   353  3.5200000000000D+00  0.0000000000000D+00  0.0000000000000D+00
   354  3.5300000000000D+00  0.0000000000000D+00  0.0000000000000D+00
   355  3.5400000000000D+00  0.0000000000000D+00  0.0000000000000D+00
   356  3.5500000000000D+00  0.0000000000000D+00  0.0000000000000D+00
   357  3.5600000000000D+00  0.0000000000000D+00  0.0000000000000D+00
   358  3.5700000000000D+00  0.0000000000000D+00  0.0000000000000D+00
   359  3.5800000000000D+00  0.0000000000000D+00  0.0000000000000D+00
   360  3.5900000000000D+00  0.0000000000000D+00  0.0000000000000D+00
   361  3.6000000000000D+00  0.0000000000000D+00  0.0000000000000D+00
   362  3.6100000000000D+00  0.0000000000000D+00  0.0000000000000D+00
   363  3.6200000000000D+00  0.0000000000000D+00  0.0000000000000D+00
   364  3.6300000000000D+00  0.0000000000000D+00  0.0000000000000D+00
   365  3.6400000000000D+00  0.0000000000000D+00  0.0000000000000D+00
   366  3.6500000000000D+00  0.0000000000000D+00  0.0000000000000D+00
   367  3.6600000000000D+00  0.0000000000000D+00  0.0000000000000D+00
   368  3.6700000000000D+00  0.0000000000000D+00  0.0000000000000D+00
   369  3.6800000000000D+00  0.0000000000000D+00  0.0000000000000D+00
   370  3.6900000000000D+00  0.0000000000000D+00  0.0000000000000D+00
   371  3.7000000000000D+00  0.0000000000000D+00  0.0000000000000D+00
   372  3.7100000000000D+00  0.0000000000000D+00  0.0000000000000D+00
   373  3.7200000000000D+00  0.0000000000000D+00  0.0000000000000D+00
   374  3.7300000000000D+00  0.0000000000000D+00  0.0000000000000D+00
   375  3.7400000000000D+00  0.0000000000000D+00  0.0000000000000D+00
   376  3.7500000000000D+00  0.0000000000000D+00  0.0000000000000D+00
   377  3.7600000000000D+00  0.0000000000000D+00  0.0000000000000D+00
   378  3.7700000000000D+00  0.0000000000000D+00  0.0000000000000D+00
   379  3.7800000000000D+00  0.0000000000000D+00  0.0000000000000D+00
   380  3.7900000000000D+00  0.0000000000000D+00  0.0000000000000D+00
   381  3.8000000000000D+00  0.0000000000000D+00  0.0000000000000D+00
   382  3.8100000000000D+00  0.0000000000000D+00  0.0000000000000D+00
   383  3.8200000000000D+00  0.0000000000000D+00  0.0000000000000D+00
   384  3.8300000000000D+00  0.0000000000000D+00  0.0000000000000D+00
   385  3.8400000000000D+00  0.0000000000000D+00  0.0000000000000D+00
   386  3.8500000000000D+00  0.0000000000000D+00  0.0000000000000D+00
   387  3.8600000000000D+00  0.0000000000000D+00  0.0000000000000D+00
   388  3.8700000000000D+00  0.0000000000000D+00  0.0000000000000D+00
   389  3.8800000000000D+00  0.0000000000000D+00  0.0000000000000D+00
   390  3.8900000000000D+00  0.0000000000000D+00  0.0000000000000D+00
   391  3.9000000000000D+00  0.0000000000000D+00  0.0000000000000D+00
   392  3.9100000000000D+00  0.0000000000000D+00  0.0000000000000D+00
   393  3.9200000000000D+00  0.0000000000000D+00  0.0000000000000D+00
   394  3.9300000000000D+00  0.0000000000000D+00  0.0000000000000D+00
   395  3.9400000000000D+00  0.0000000000000D+00  0.0000000000000D+00
   396  3.9500000000000D+00  0.0000000000000D+00  0.0000000000000D+00
   397  3.9600000000000D+00  0.0000000000000D+00  0.0000000000000D+00
   398  3.9700000000000D+00  0.0000000000000D+00  0.0000000000000D+00
   399  3.9800000000000D+00  0.0000000000000D+00  0.0000000000000D+00
   400  3.9900000000000D+00  0.0000000000000D+00  0.0000000000000D+00
   401  4.0000000000000D+00  0.0000000000000D+00  0.0000000000000D+00
   402  4.0100000000000D+00  0.0000000000000D+00  0.0000000000000D+00
   403  4.0200000000000D+00  0.0000000000000D+00  0.0000000000000D+00
   404  4.0300000000000D+00  0.0000000000000D+00  0.0000000000000D+00
   405  4.0400000000000D+00  0.0000000000000D+00  0.0000000000000D+00
   406  4.0500000000000D+00  0.0000000000000D+00  0.0000000000000D+00
   407  4.0600000000000D+00  0.0000000000000D+00  0.0000000000000D+00
   408  4.0700000000000D+00  0.0000000000000D+00  0.0000000000000D+00
   409  4.0800000000000D+00  0.0000000000000D+00  0.0000000000000D+00
   410  4.0900000000000D+00  0.0000000000000D+00  0.0000000000000D+00
   411  4.1000000000000D+00  0.0000000000000D+00  0.0000000000000D+00
   412  4.1100000000000D+00  0.0000000000000D+00  0.0000000000000D+00
   413  4.1200000000000D+00  0.0000000000000D+00  0.0000000000000D+00
   414  4.1300000000000D+00  0.0000000000000D+00  0.0000000000000D+00
   415  4.1400000000000D+00  0.0000000000000D+00  0.0000000000000D+00
   416  4.1500000000000D+00  0.0000000000000D+00  0.0000000000000D+00
   417  4.1600000000000D+00  0.0000000000000D+00  0.0000000000000D+00
   418  4.1700000000000D+00  0.0000000000000D+00  0.0000000000000D+00
   419  4.1800000000000D+00  0.0000000000000D+00  0.0000000000000D+00
   420  4.1900000000000D+00  0.0000000000000D+00  0.0000000000000D+00
   421  4.2000000000000D+00  0.0000000000000D+00  0.0000000000000D+00
   422  4.2100000000000D+00  0.0000000000000D+00  0.0000000000000D+00