Tb    ONCVPSP-3.3.0  r_core=   1.81238   1.51545   1.66719   1.70744
     65.0000     19.0000      220117    zatom,zion,pspd
     8      11   3     4   600     0    pspcod,pspxc,lmax,lloc,mmax,r2well
  5.99000000  0.00000000  0.00000000    rchrg fchrg qchrg
     2     2     2     2     0    nproj
     1     1           extension_switch
   0                         8.7985509333568D+00  5.6109715144757D-01
     1  0.0000000000000D+00 -4.6467607539569D-11  3.3997582526979D-10
     2  1.0000000000000D-02  4.7485829350490D-02 -2.3869682489090D-02
     3  2.0000000000000D-02  9.4912935937245D-02 -4.7602080411374D-02
     4  3.0000000000000D-02  1.4222274406092D-01 -7.1060942823321D-02
     5  4.0000000000000D-02  1.8935697102606D-01 -9.4112076557898D-02
     6  5.0000000000000D-02  2.3625777084271D-01 -1.1662435152458D-01
     7  6.0000000000000D-02  2.8286787460075D-01 -1.3847067794583D-01
     8  7.0000000000000D-02  3.2913072646308D-01 -1.5952894657750D-01
     9  8.0000000000000D-02  3.7499061426972D-01 -1.7968292330045D-01
    10  9.0000000000000D-02  4.2039279380283D-01 -1.9882308989027D-01
    11  1.0000000000000D-01  4.6528360582936D-01 -2.1684742326776D-01
    12  1.1000000000000D-01  5.0961058511572D-01 -2.3366210609973D-01
    13  1.2000000000000D-01  5.5332256069423D-01 -2.4918216225389D-01
    14  1.3000000000000D-01  5.9636974675517D-01 -2.6333201130725D-01
    15  1.4000000000000D-01  6.3870382363907D-01 -2.7604593705778D-01
    16  1.5000000000000D-01  6.8027800851077D-01 -2.8726846578927D-01
    17  1.6000000000000D-01  7.2104711540878D-01 -2.9695465088028D-01
    18  1.7000000000000D-01  7.6096760447920D-01 -3.0507026122419D-01
    19  1.8000000000000D-01  7.9999762032193D-01 -3.1159187183001D-01
    20  1.9000000000000D-01  8.3809701949706D-01 -3.1650685589475D-01
    21  2.0000000000000D-01  8.7522738735913D-01 -3.1981327856967D-01
    22  2.1000000000000D-01  9.1135204450659D-01 -3.2151969357673D-01
    23  2.2000000000000D-01  9.4643604325034D-01 -3.2164484475841D-01
    24  2.3000000000000D-01  9.8044615461863D-01 -3.2021727555599D-01
    25  2.4000000000000D-01  1.0133508465241D+00 -3.1727485030044D-01
    26  2.5000000000000D-01  1.0451202538215D+00 -3.1286419205586D-01
    27  2.6000000000000D-01  1.0757261410787D+00 -3.0704004257264D-01
    28  2.7000000000000D-01  1.1051418589728D+00 -2.9986455067574D-01
    29  2.8000000000000D-01  1.1333422952980D+00 -2.9140649612609D-01
    30  2.9000000000000D-01  1.1603038216403D+00 -2.8174045664426D-01
    31  3.0000000000000D-01  1.1860042368308D+00 -2.7094592636544D-01
    32  3.1000000000000D-01  1.2104227083300D+00 -2.5910639450089D-01
    33  3.2000000000000D-01  1.2335397127304D+00 -2.4630839340468D-01
    34  3.3000000000000D-01  1.2553369765775D+00 -2.3264052558376D-01
    35  3.4000000000000D-01  1.2757974187175D+00 -2.1819247943730D-01
    36  3.5000000000000D-01  1.2949050953639D+00 -2.0305404366607D-01
    37  3.6000000000000D-01  1.3126451490564D+00 -1.8731413035293D-01
    38  3.7000000000000D-01  1.3290037626388D+00 -1.7105981667579D-01
    39  3.8000000000000D-01  1.3439681193351D+00 -1.5437541507901D-01
    40  3.9000000000000D-01  1.3575263699299D+00 -1.3734158149341D-01
    41  4.0000000000000D-01  1.3696676079801D+00 -1.2003447086435D-01
    42  4.1000000000000D-01  1.3803818538896D+00 -1.0252494881932D-01
    43  4.2000000000000D-01  1.3896600485702D+00 -8.4877867789045D-02
    44  4.3000000000000D-01  1.3974940572937D+00 -6.7151415288181D-02
    45  4.4000000000000D-01  1.4038766842110D+00 -4.9396541372442D-02
    46  4.5000000000000D-01  1.4088016978750D+00 -3.1656471521781D-02
    47  4.6000000000000D-01  1.4122638679563D+00 -1.3966310360517D-02
    48  4.7000000000000D-01  1.4142590131885D+00  3.6472592744771D-03
    49  4.8000000000000D-01  1.4147840604209D+00  2.1166178363963D-02
    50  4.9000000000000D-01  1.4138371144930D+00  3.8581112282234D-02
    51  5.0000000000000D-01  1.4114175384840D+00  5.5891448404564D-02
    52  5.1000000000000D-01  1.4075260437240D+00  7.3105190297076D-02
    53  5.2000000000000D-01  1.4021647887939D+00  9.0238749119249D-02
    54  5.3000000000000D-01  1.3953374865817D+00  1.0731663395354D-01
    55  5.4000000000000D-01  1.3870495183125D+00  1.2437104385506D-01
    56  5.5000000000000D-01  1.3773080533228D+00  1.4144136547255D-01
    57  5.6000000000000D-01  1.3661221732176D+00  1.5857358112170D-01
    58  5.7000000000000D-01  1.3535029989236D+00  1.7581959318088D-01
    59  5.8000000000000D-01  1.3394638190429D+00  1.9323647161325D-01
    60  5.9000000000000D-01  1.3240202178173D+00  2.1088563229475D-01
    61  6.0000000000000D-01  1.3071902009329D+00  2.2883195462219D-01
    62  6.1000000000000D-01  1.2889943173389D+00  2.4714284759486D-01
    63  6.2000000000000D-01  1.2694557752088D+00  2.6588727418144D-01
    64  6.3000000000000D-01  1.2486005501571D+00  2.8513474430765D-01
    65  6.4000000000000D-01  1.2264574838234D+00  3.0495428721104D-01
    66  6.5000000000000D-01  1.2030583709612D+00  3.2541341420666D-01
    67  6.6000000000000D-01  1.1784380332151D+00  3.4657708308575D-01
    68  6.7000000000000D-01  1.1526343778409D+00  3.6850667542069D-01
    69  6.8000000000000D-01  1.1256884397168D+00  3.9125899797837D-01
    70  6.9000000000000D-01  1.0976444051081D+00  4.1488531924068D-01
    71  7.0000000000000D-01  1.0685496157899D+00  4.3943045170256D-01
    72  7.1000000000000D-01  1.0384545522902D+00  4.6493189016280D-01
    73  7.2000000000000D-01  1.0074127951966D+00  4.9141901564725D-01
    74  7.3000000000000D-01  9.7548096367142D-01  5.1891237390577D-01
    75  7.4000000000000D-01  9.4271863053685D-01  5.4742303662126D-01
    76  7.5000000000000D-01  9.0918821352312D-01  5.7695205255743D-01
    77  7.6000000000000D-01  8.7495484252144D-01  6.0748999487062D-01
    78  7.7000000000000D-01  8.4008620293887D-01  6.3901660972217D-01
    79  7.8000000000000D-01  8.0465235551744D-01  6.7150057017538D-01
    80  7.9000000000000D-01  7.6872553325154D-01  7.0489933814060D-01
    81  8.0000000000000D-01  7.3237991630896D-01  7.3915913587883D-01
    82  8.1000000000000D-01  6.9569138613327D-01  7.7421502728820D-01
    83  8.2000000000000D-01  6.5873726017189D-01  8.0999110790081D-01
    84  8.3000000000000D-01  6.2159600893368D-01  8.4640080122783D-01
    85  8.4000000000000D-01  5.8434695732750D-01  8.8334725782222D-01
    86  8.5000000000000D-01  5.4706997246600D-01  9.2072385220264D-01
    87  8.6000000000000D-01  5.0984514033343D-01  9.5841477161224D-01
    88  8.7000000000000D-01  4.7275243390856D-01  9.9629568949301D-01
    89  8.8000000000000D-01  4.3587137550159D-01  1.0342345155558D+00
    90  8.9000000000000D-01  3.9928069620242D-01  1.0720922134332D+00
    91  9.0000000000000D-01  3.6305799544628D-01  1.1097236761351D+00
    92  9.1000000000000D-01  3.2727940377606D-01  1.1469786488954D+00
    93  9.2000000000000D-01  2.9201925191892D-01  1.1837026885212D+00
    94  9.3000000000000D-01  2.5734974929411D-01  1.2197381480368D+00
    95  9.4000000000000D-01  2.2334067502860D-01  1.2549251752703D+00
    96  9.5000000000000D-01  1.9005908447554D-01  1.2891027140637D+00
    97  9.6000000000000D-01  1.5756903410670D-01  1.3221094970071D+00
    98  9.7000000000000D-01  1.2593132748721D-01  1.3537850189906D+00
    99  9.8000000000000D-01  9.5203284830087D-02  1.3839704814691D+00
   100  9.9000000000000D-01  6.5438538382485D-02  1.4125096981009D+00
   101  1.0000000000000D+00  3.6686855607166D-02  1.4392499533717D+00
   102  1.0100000000000D+00  8.9939917975826D-03  1.4640428069376D+00
   103  1.0200000000000D+00 -1.7598426594077D-02  1.4867448376908D+00
   104  1.0300000000000D+00 -4.3052987040311D-02  1.5072183230232D+00
   105  1.0400000000000D+00 -6.7336543945985D-02  1.5253318501849D+00
   106  1.0500000000000D+00 -9.0420239579107D-02  1.5409608584540D+00
   107  1.0600000000000D+00 -1.1227949335617D-01  1.5539881124537D+00
   108  1.0700000000000D+00 -1.3289396039709D-01  1.5643041087813D+00
   109  1.0800000000000D+00 -1.5224746077081D-01  1.5718074200164D+00
   110  1.0900000000000D+00 -1.7032788127816D-01  1.5764049817811D+00
   111  1.1000000000000D+00 -1.8712705216659D-01  1.5780123305714D+00
   112  1.1100000000000D+00 -2.0264060159350D-01  1.5765538016371D+00
   113  1.1200000000000D+00 -2.1686779111935D-01  1.5719626978651D+00
   114  1.1300000000000D+00 -2.2981133590515D-01  1.5641814420040D+00
   115  1.1400000000000D+00 -2.4147721366953D-01  1.5531617258721D+00
   116  1.1500000000000D+00 -2.5187446682294D-01  1.5388646713318D+00
   117  1.1600000000000D+00 -2.6101500243848D-01  1.5212610184465D+00
   118  1.1700000000000D+00 -2.6891339491954D-01  1.5003313566751D+00
   119  1.1800000000000D+00 -2.7558669640228D-01  1.4760664152311D+00
   120  1.1900000000000D+00 -2.8105425997806D-01  1.4484674283366D+00
   121  1.2000000000000D+00 -2.8533758070591D-01  1.4175465899138D+00
   122  1.2100000000000D+00 -2.8846015939260D-01  1.3833276119566D+00
   123  1.2200000000000D+00 -2.9044739377316D-01  1.3458463982168D+00
   124  1.2300000000000D+00 -2.9132650128613D-01  1.3051518422330D+00
   125  1.2400000000000D+00 -2.9112647729835D-01  1.2613067565960D+00
   126  1.2500000000000D+00 -2.8987809202323D-01  1.2143889366425D+00
   127  1.2600000000000D+00 -2.8761392825400D-01  1.1644923555556D+00
   128  1.2700000000000D+00 -2.8436846140594D-01  1.1117284844061D+00
   129  1.2800000000000D+00 -2.8017818253791D-01  1.0562277260218D+00
   130  1.2900000000000D+00 -2.7508176275207D-01  9.9814093947467D-01
   131  1.3000000000000D+00 -2.6912025681024D-01  9.3764102904004D-01
   132  1.3100000000000D+00 -2.6233734246021D-01  8.7492456421765D-01
   133  1.3200000000000D+00 -2.5477958814298D-01  8.1021337748718D-01
   134  1.3300000000000D+00 -2.4649674215482D-01  7.4375608857672D-01
   135  1.3400000000000D+00 -2.3754203320851D-01  6.7582948762623D-01
   136  1.3500000000000D+00 -2.2797246704507D-01  6.0673968237499D-01
   137  1.3600000000000D+00 -2.1784910693514D-01  5.3682293088788D-01
   138  1.3700000000000D+00 -2.0723731694384D-01  4.6644603507143D-01
   139  1.3800000000000D+00 -1.9620694452056D-01  3.9600615842572D-01
   140  1.3900000000000D+00 -1.8483242191058D-01  3.2592994649458D-01
   141  1.4000000000000D+00 -1.7319274955958D-01  2.5667174457478D-01
   142  1.4100000000000D+00 -1.6137133304611D-01  1.8871075022335D-01
   143  1.4200000000000D+00 -1.4945563455109D-01  1.2254688404452D-01
   144  1.4300000000000D+00 -1.3753658842944D-01  5.8695103279023D-02
   145  1.4400000000000D+00 -1.2570774574974D-01 -2.3220384241346D-03
   146  1.4500000000000D+00 -1.1406407668791D-01 -5.9983966985131D-02
   147  1.4600000000000D+00 -1.0270038391363D-01 -1.1378405666561D-01
   148  1.4700000000000D+00 -9.1709225801986D-02 -1.6324458536998D-01
   149  1.4800000000000D+00 -8.1178453449827D-02 -2.0793377762337D-01
   150  1.4900000000000D+00 -7.1187564380350D-02 -2.4749051813046D-01
   151  1.5000000000000D+00 -6.1805391413175D-02 -2.8163871614593D-01
   152  1.5100000000000D+00 -5.3082255723397D-02 -3.1023966295136D-01
   153  1.5200000000000D+00 -4.5045660211440D-02 -3.3331858084389D-01
   154  1.5300000000000D+00 -3.7703917355439D-02 -3.5103064516856D-01
   155  1.5400000000000D+00 -3.1050077529416D-02 -3.6362811132592D-01
   156  1.5500000000000D+00 -2.5071452804098D-02 -3.7139036648253D-01
   157  1.5600000000000D+00 -1.9751770134012D-02 -3.7460786594070D-01
   158  1.5700000000000D+00 -1.5069179361426D-02 -3.7359788477806D-01
   159  1.5800000000000D+00 -1.0997495905273D-02 -3.6869579360858D-01
   160  1.5900000000000D+00 -7.5065066545730D-03 -3.6025343933679D-01
   161  1.6000000000000D+00 -4.5625191655315D-03 -3.4863583717529D-01
   162  1.6100000000000D+00 -2.1288497524744D-03 -3.3421835370726D-01
   163  1.6200000000000D+00 -1.6634018458691D-04 -3.1738372471264D-01
   164  1.6300000000000D+00  1.3661100223310D-03 -2.9851899343453D-01
   165  1.6400000000000D+00  2.5110004465779D-03 -2.7801239888920D-01
   166  1.6500000000000D+00  3.3116830490684D-03 -2.5625025625998D-01
   167  1.6600000000000D+00  3.8118190754484D-03 -2.3361387147923D-01
   168  1.6700000000000D+00  4.0548400290906D-03 -2.1047648750619D-01
   169  1.6800000000000D+00  4.0834150964771D-03 -1.8720027229310D-01
   170  1.6900000000000D+00  3.9389338940751D-03 -1.6413340216373D-01
   171  1.7000000000000D+00  3.6610108203052D-03 -1.4160727589408D-01
   172  1.7100000000000D+00  3.2870106010245D-03 -1.1993385311471D-01
   173  1.7200000000000D+00  2.8516005174357D-03 -9.9403146683646D-02
   174  1.7300000000000D+00  2.3863327489881D-03 -8.0280889450333D-02
   175  1.7400000000000D+00  1.9192626861015D-03 -6.2806406810739D-02
   176  1.7500000000000D+00  1.4746795569762D-03 -4.7192989385691D-02
   177  1.7600000000000D+00  1.0728415318225D-03 -3.3627361725267D-02
   178  1.7700000000000D+00  7.2821540113136D-04 -2.2224422580499D-02
   179  1.7800000000000D+00  4.5010126845659D-04 -1.3066687247160D-02
   180  1.7900000000000D+00  2.5340993303741D-04 -6.4418714023965D-03
   181  1.8000000000000D+00  1.4425925320094D-04 -2.4649806566882D-03
   182  1.8100000000000D+00  8.8884100707240D-05 -5.6377831336295D-04
   183  1.8200000000000D+00  4.6022646277678D-05  5.5158340480397D-05
   184  1.8300000000000D+00  1.0519372033110D-05  5.7275443028756D-05
   185  1.8400000000000D+00 -5.3980123345319D-06 -4.2123339121564D-05
   186  1.8500000000000D+00 -3.8651605820245D-06 -3.8073731344580D-05
   187  1.8600000000000D+00  8.8852633135945D-07  4.4286818785042D-06
   188  1.8700000000000D+00  1.2693444467310D-06  7.3127581140839D-06
   189  1.8800000000000D+00 -5.8359964447350D-08  2.4559682406520D-07
   190  1.8900000000000D+00 -2.2375342543367D-07  9.4162378576832D-07
   191  1.9000000000000D+00 -2.7968093323315D-08  1.1769840781110D-07
   192  1.9100000000000D+00  0.0000000000000D+00  0.0000000000000D+00
   193  1.9200000000000D+00  0.0000000000000D+00  0.0000000000000D+00
   194  1.9300000000000D+00  0.0000000000000D+00  0.0000000000000D+00
   195  1.9400000000000D+00  0.0000000000000D+00  0.0000000000000D+00
   196  1.9500000000000D+00  0.0000000000000D+00  0.0000000000000D+00
   197  1.9600000000000D+00  0.0000000000000D+00  0.0000000000000D+00
   198  1.9700000000000D+00  0.0000000000000D+00  0.0000000000000D+00
   199  1.9800000000000D+00  0.0000000000000D+00  0.0000000000000D+00
   200  1.9900000000000D+00  0.0000000000000D+00  0.0000000000000D+00
   201  2.0000000000000D+00  0.0000000000000D+00  0.0000000000000D+00
   202  2.0100000000000D+00  0.0000000000000D+00  0.0000000000000D+00
   203  2.0200000000000D+00  0.0000000000000D+00  0.0000000000000D+00
   204  2.0300000000000D+00  0.0000000000000D+00  0.0000000000000D+00
   205  2.0400000000000D+00  0.0000000000000D+00  0.0000000000000D+00
   206  2.0500000000000D+00  0.0000000000000D+00  0.0000000000000D+00
   207  2.0600000000000D+00  0.0000000000000D+00  0.0000000000000D+00
   208  2.0700000000000D+00  0.0000000000000D+00  0.0000000000000D+00
   209  2.0800000000000D+00  0.0000000000000D+00  0.0000000000000D+00
   210  2.0900000000000D+00  0.0000000000000D+00  0.0000000000000D+00
   211  2.1000000000000D+00  0.0000000000000D+00  0.0000000000000D+00
   212  2.1100000000000D+00  0.0000000000000D+00  0.0000000000000D+00
   213  2.1200000000000D+00  0.0000000000000D+00  0.0000000000000D+00
   214  2.1300000000000D+00  0.0000000000000D+00  0.0000000000000D+00
   215  2.1400000000000D+00  0.0000000000000D+00  0.0000000000000D+00
   216  2.1500000000000D+00  0.0000000000000D+00  0.0000000000000D+00
   217  2.1600000000000D+00  0.0000000000000D+00  0.0000000000000D+00
   218  2.1700000000000D+00  0.0000000000000D+00  0.0000000000000D+00
   219  2.1800000000000D+00  0.0000000000000D+00  0.0000000000000D+00
   220  2.1900000000000D+00  0.0000000000000D+00  0.0000000000000D+00
   221  2.2000000000000D+00  0.0000000000000D+00  0.0000000000000D+00
   222  2.2100000000000D+00  0.0000000000000D+00  0.0000000000000D+00
   223  2.2200000000000D+00  0.0000000000000D+00  0.0000000000000D+00
   224  2.2300000000000D+00  0.0000000000000D+00  0.0000000000000D+00
   225  2.2400000000000D+00  0.0000000000000D+00  0.0000000000000D+00
   226  2.2500000000000D+00  0.0000000000000D+00  0.0000000000000D+00
   227  2.2600000000000D+00  0.0000000000000D+00  0.0000000000000D+00
   228  2.2700000000000D+00  0.0000000000000D+00  0.0000000000000D+00
   229  2.2800000000000D+00  0.0000000000000D+00  0.0000000000000D+00
   230  2.2900000000000D+00  0.0000000000000D+00  0.0000000000000D+00
   231  2.3000000000000D+00  0.0000000000000D+00  0.0000000000000D+00
   232  2.3100000000000D+00  0.0000000000000D+00  0.0000000000000D+00
   233  2.3200000000000D+00  0.0000000000000D+00  0.0000000000000D+00
   234  2.3300000000000D+00  0.0000000000000D+00  0.0000000000000D+00
   235  2.3400000000000D+00  0.0000000000000D+00  0.0000000000000D+00
   236  2.3500000000000D+00  0.0000000000000D+00  0.0000000000000D+00
   237  2.3600000000000D+00  0.0000000000000D+00  0.0000000000000D+00
   238  2.3700000000000D+00  0.0000000000000D+00  0.0000000000000D+00
   239  2.3800000000000D+00  0.0000000000000D+00  0.0000000000000D+00
   240  2.3900000000000D+00  0.0000000000000D+00  0.0000000000000D+00
   241  2.4000000000000D+00  0.0000000000000D+00  0.0000000000000D+00
   242  2.4100000000000D+00  0.0000000000000D+00  0.0000000000000D+00
   243  2.4200000000000D+00  0.0000000000000D+00  0.0000000000000D+00
   244  2.4300000000000D+00  0.0000000000000D+00  0.0000000000000D+00
   245  2.4400000000000D+00  0.0000000000000D+00  0.0000000000000D+00
   246  2.4500000000000D+00  0.0000000000000D+00  0.0000000000000D+00
   247  2.4600000000000D+00  0.0000000000000D+00  0.0000000000000D+00
   248  2.4700000000000D+00  0.0000000000000D+00  0.0000000000000D+00
   249  2.4800000000000D+00  0.0000000000000D+00  0.0000000000000D+00
   250  2.4900000000000D+00  0.0000000000000D+00  0.0000000000000D+00
   251  2.5000000000000D+00  0.0000000000000D+00  0.0000000000000D+00
   252  2.5100000000000D+00  0.0000000000000D+00  0.0000000000000D+00
   253  2.5200000000000D+00  0.0000000000000D+00  0.0000000000000D+00
   254  2.5300000000000D+00  0.0000000000000D+00  0.0000000000000D+00
   255  2.5400000000000D+00  0.0000000000000D+00  0.0000000000000D+00
   256  2.5500000000000D+00  0.0000000000000D+00  0.0000000000000D+00
   257  2.5600000000000D+00  0.0000000000000D+00  0.0000000000000D+00
   258  2.5700000000000D+00  0.0000000000000D+00  0.0000000000000D+00
   259  2.5800000000000D+00  0.0000000000000D+00  0.0000000000000D+00
   260  2.5900000000000D+00  0.0000000000000D+00  0.0000000000000D+00
   261  2.6000000000000D+00  0.0000000000000D+00  0.0000000000000D+00
   262  2.6100000000000D+00  0.0000000000000D+00  0.0000000000000D+00
   263  2.6200000000000D+00  0.0000000000000D+00  0.0000000000000D+00
   264  2.6300000000000D+00  0.0000000000000D+00  0.0000000000000D+00
   265  2.6400000000000D+00  0.0000000000000D+00  0.0000000000000D+00
   266  2.6500000000000D+00  0.0000000000000D+00  0.0000000000000D+00
   267  2.6600000000000D+00  0.0000000000000D+00  0.0000000000000D+00
   268  2.6700000000000D+00  0.0000000000000D+00  0.0000000000000D+00
   269  2.6800000000000D+00  0.0000000000000D+00  0.0000000000000D+00
   270  2.6900000000000D+00  0.0000000000000D+00  0.0000000000000D+00
   271  2.7000000000000D+00  0.0000000000000D+00  0.0000000000000D+00
   272  2.7100000000000D+00  0.0000000000000D+00  0.0000000000000D+00
   273  2.7200000000000D+00  0.0000000000000D+00  0.0000000000000D+00
   274  2.7300000000000D+00  0.0000000000000D+00  0.0000000000000D+00
   275  2.7400000000000D+00  0.0000000000000D+00  0.0000000000000D+00
   276  2.7500000000000D+00  0.0000000000000D+00  0.0000000000000D+00
   277  2.7600000000000D+00  0.0000000000000D+00  0.0000000000000D+00
   278  2.7700000000000D+00  0.0000000000000D+00  0.0000000000000D+00
   279  2.7800000000000D+00  0.0000000000000D+00  0.0000000000000D+00
   280  2.7900000000000D+00  0.0000000000000D+00  0.0000000000000D+00
   281  2.8000000000000D+00  0.0000000000000D+00  0.0000000000000D+00
   282  2.8100000000000D+00  0.0000000000000D+00  0.0000000000000D+00
   283  2.8200000000000D+00  0.0000000000000D+00  0.0000000000000D+00
   284  2.8300000000000D+00  0.0000000000000D+00  0.0000000000000D+00
   285  2.8400000000000D+00  0.0000000000000D+00  0.0000000000000D+00
   286  2.8500000000000D+00  0.0000000000000D+00  0.0000000000000D+00
   287  2.8600000000000D+00  0.0000000000000D+00  0.0000000000000D+00
   288  2.8700000000000D+00  0.0000000000000D+00  0.0000000000000D+00
   289  2.8800000000000D+00  0.0000000000000D+00  0.0000000000000D+00
   290  2.8900000000000D+00  0.0000000000000D+00  0.0000000000000D+00
   291  2.9000000000000D+00  0.0000000000000D+00  0.0000000000000D+00
   292  2.9100000000000D+00  0.0000000000000D+00  0.0000000000000D+00
   293  2.9200000000000D+00  0.0000000000000D+00  0.0000000000000D+00
   294  2.9300000000000D+00  0.0000000000000D+00  0.0000000000000D+00
   295  2.9400000000000D+00  0.0000000000000D+00  0.0000000000000D+00
   296  2.9500000000000D+00  0.0000000000000D+00  0.0000000000000D+00
   297  2.9600000000000D+00  0.0000000000000D+00  0.0000000000000D+00
   298  2.9700000000000D+00  0.0000000000000D+00  0.0000000000000D+00
   299  2.9800000000000D+00  0.0000000000000D+00  0.0000000000000D+00
   300  2.9900000000000D+00  0.0000000000000D+00  0.0000000000000D+00
   301  3.0000000000000D+00  0.0000000000000D+00  0.0000000000000D+00
   302  3.0100000000000D+00  0.0000000000000D+00  0.0000000000000D+00
   303  3.0200000000000D+00  0.0000000000000D+00  0.0000000000000D+00
   304  3.0300000000000D+00  0.0000000000000D+00  0.0000000000000D+00
   305  3.0400000000000D+00  0.0000000000000D+00  0.0000000000000D+00
   306  3.0500000000000D+00  0.0000000000000D+00  0.0000000000000D+00
   307  3.0600000000000D+00  0.0000000000000D+00  0.0000000000000D+00
   308  3.0700000000000D+00  0.0000000000000D+00  0.0000000000000D+00
   309  3.0800000000000D+00  0.0000000000000D+00  0.0000000000000D+00
   310  3.0900000000000D+00  0.0000000000000D+00  0.0000000000000D+00
   311  3.1000000000000D+00  0.0000000000000D+00  0.0000000000000D+00
   312  3.1100000000000D+00  0.0000000000000D+00  0.0000000000000D+00
   313  3.1200000000000D+00  0.0000000000000D+00  0.0000000000000D+00
   314  3.1300000000000D+00  0.0000000000000D+00  0.0000000000000D+00
   315  3.1400000000000D+00  0.0000000000000D+00  0.0000000000000D+00
   316  3.1500000000000D+00  0.0000000000000D+00  0.0000000000000D+00
   317  3.1600000000000D+00  0.0000000000000D+00  0.0000000000000D+00
   318  3.1700000000000D+00  0.0000000000000D+00  0.0000000000000D+00
   319  3.1800000000000D+00  0.0000000000000D+00  0.0000000000000D+00
   320  3.1900000000000D+00  0.0000000000000D+00  0.0000000000000D+00
   321  3.2000000000000D+00  0.0000000000000D+00  0.0000000000000D+00
   322  3.2100000000000D+00  0.0000000000000D+00  0.0000000000000D+00
   323  3.2200000000000D+00  0.0000000000000D+00  0.0000000000000D+00
   324  3.2300000000000D+00  0.0000000000000D+00  0.0000000000000D+00
   325  3.2400000000000D+00  0.0000000000000D+00  0.0000000000000D+00
   326  3.2500000000000D+00  0.0000000000000D+00  0.0000000000000D+00
   327  3.2600000000000D+00  0.0000000000000D+00  0.0000000000000D+00
   328  3.2700000000000D+00  0.0000000000000D+00  0.0000000000000D+00
   329  3.2800000000000D+00  0.0000000000000D+00  0.0000000000000D+00
   330  3.2900000000000D+00  0.0000000000000D+00  0.0000000000000D+00
   331  3.3000000000000D+00  0.0000000000000D+00  0.0000000000000D+00
   332  3.3100000000000D+00  0.0000000000000D+00  0.0000000000000D+00
   333  3.3200000000000D+00  0.0000000000000D+00  0.0000000000000D+00
   334  3.3300000000000D+00  0.0000000000000D+00  0.0000000000000D+00
   335  3.3400000000000D+00  0.0000000000000D+00  0.0000000000000D+00
   336  3.3500000000000D+00  0.0000000000000D+00  0.0000000000000D+00
   337  3.3600000000000D+00  0.0000000000000D+00  0.0000000000000D+00
   338  3.3700000000000D+00  0.0000000000000D+00  0.0000000000000D+00
   339  3.3800000000000D+00  0.0000000000000D+00  0.0000000000000D+00
   340  3.3900000000000D+00  0.0000000000000D+00  0.0000000000000D+00
   341  3.4000000000000D+00  0.0000000000000D+00  0.0000000000000D+00
   342  3.4100000000000D+00  0.0000000000000D+00  0.0000000000000D+00
   343  3.4200000000000D+00  0.0000000000000D+00  0.0000000000000D+00
   344  3.4300000000000D+00  0.0000000000000D+00  0.0000000000000D+00
   345  3.4400000000000D+00  0.0000000000000D+00  0.0000000000000D+00
   346  3.4500000000000D+00  0.0000000000000D+00  0.0000000000000D+00
   347  3.4600000000000D+00  0.0000000000000D+00  0.0000000000000D+00
   348  3.4700000000000D+00  0.0000000000000D+00  0.0000000000000D+00
   349  3.4800000000000D+00  0.0000000000000D+00  0.0000000000000D+00
   350  3.4900000000000D+00  0.0000000000000D+00  0.0000000000000D+00
   351  3.5000000000000D+00  0.0000000000000D+00  0.0000000000000D+00
   352  3.5100000000000D+00  0.0000000000000D+00  0.0000000000000D+00
   353  3.5200000000000D+00  0.0000000000000D+00  0.0000000000000D+00
   354  3.5300000000000D+00  0.0000000000000D+00  0.0000000000000D+00
   355  3.5400000000000D+00  0.0000000000000D+00  0.0000000000000D+00
   356  3.5500000000000D+00  0.0000000000000D+00  0.0000000000000D+00
   357  3.5600000000000D+00  0.0000000000000D+00  0.0000000000000D+00
   358  3.5700000000000D+00  0.0000000000000D+00  0.0000000000000D+00
   359  3.5800000000000D+00  0.0000000000000D+00  0.0000000000000D+00
   360  3.5900000000000D+00  0.0000000000000D+00  0.0000000000000D+00
   361  3.6000000000000D+00  0.0000000000000D+00  0.0000000000000D+00
   362  3.6100000000000D+00  0.0000000000000D+00  0.0000000000000D+00
   363  3.6200000000000D+00  0.0000000000000D+00  0.0000000000000D+00
   364  3.6300000000000D+00  0.0000000000000D+00  0.0000000000000D+00
   365  3.6400000000000D+00  0.0000000000000D+00  0.0000000000000D+00
   366  3.6500000000000D+00  0.0000000000000D+00  0.0000000000000D+00
   367  3.6600000000000D+00  0.0000000000000D+00  0.0000000000000D+00
   368  3.6700000000000D+00  0.0000000000000D+00  0.0000000000000D+00
   369  3.6800000000000D+00  0.0000000000000D+00  0.0000000000000D+00
   370  3.6900000000000D+00  0.0000000000000D+00  0.0000000000000D+00
   371  3.7000000000000D+00  0.0000000000000D+00  0.0000000000000D+00
   372  3.7100000000000D+00  0.0000000000000D+00  0.0000000000000D+00
   373  3.7200000000000D+00  0.0000000000000D+00  0.0000000000000D+00
   374  3.7300000000000D+00  0.0000000000000D+00  0.0000000000000D+00
   375  3.7400000000000D+00  0.0000000000000D+00  0.0000000000000D+00
   376  3.7500000000000D+00  0.0000000000000D+00  0.0000000000000D+00
   377  3.7600000000000D+00  0.0000000000000D+00  0.0000000000000D+00
   378  3.7700000000000D+00  0.0000000000000D+00  0.0000000000000D+00
   379  3.7800000000000D+00  0.0000000000000D+00  0.0000000000000D+00
   380  3.7900000000000D+00  0.0000000000000D+00  0.0000000000000D+00
   381  3.8000000000000D+00  0.0000000000000D+00  0.0000000000000D+00
   382  3.8100000000000D+00  0.0000000000000D+00  0.0000000000000D+00
   383  3.8200000000000D+00  0.0000000000000D+00  0.0000000000000D+00
   384  3.8300000000000D+00  0.0000000000000D+00  0.0000000000000D+00
   385  3.8400000000000D+00  0.0000000000000D+00  0.0000000000000D+00
   386  3.8500000000000D+00  0.0000000000000D+00  0.0000000000000D+00
   387  3.8600000000000D+00  0.0000000000000D+00  0.0000000000000D+00
   388  3.8700000000000D+00  0.0000000000000D+00  0.0000000000000D+00
   389  3.8800000000000D+00  0.0000000000000D+00  0.0000000000000D+00
   390  3.8900000000000D+00  0.0000000000000D+00  0.0000000000000D+00
   391  3.9000000000000D+00  0.0000000000000D+00  0.0000000000000D+00
   392  3.9100000000000D+00  0.0000000000000D+00  0.0000000000000D+00
   393  3.9200000000000D+00  0.0000000000000D+00  0.0000000000000D+00
   394  3.9300000000000D+00  0.0000000000000D+00  0.0000000000000D+00
   395  3.9400000000000D+00  0.0000000000000D+00  0.0000000000000D+00
   396  3.9500000000000D+00  0.0000000000000D+00  0.0000000000000D+00
   397  3.9600000000000D+00  0.0000000000000D+00  0.0000000000000D+00
   398  3.9700000000000D+00  0.0000000000000D+00  0.0000000000000D+00
   399  3.9800000000000D+00  0.0000000000000D+00  0.0000000000000D+00
   400  3.9900000000000D+00  0.0000000000000D+00  0.0000000000000D+00
   401  4.0000000000000D+00  0.0000000000000D+00  0.0000000000000D+00
   402  4.0100000000000D+00  0.0000000000000D+00  0.0000000000000D+00
   403  4.0200000000000D+00  0.0000000000000D+00  0.0000000000000D+00
   404  4.0300000000000D+00  0.0000000000000D+00  0.0000000000000D+00
   405  4.0400000000000D+00  0.0000000000000D+00  0.0000000000000D+00
   406  4.0500000000000D+00  0.0000000000000D+00  0.0000000000000D+00
   407  4.0600000000000D+00  0.0000000000000D+00  0.0000000000000D+00
   408  4.0700000000000D+00  0.0000000000000D+00  0.0000000000000D+00
   409  4.0800000000000D+00  0.0000000000000D+00  0.0000000000000D+00
   410  4.0900000000000D+00  0.0000000000000D+00  0.0000000000000D+00
   411  4.1000000000000D+00  0.0000000000000D+00  0.0000000000000D+00
   412  4.1100000000000D+00  0.0000000000000D+00  0.0000000000000D+00
   413  4.1200000000000D+00  0.0000000000000D+00  0.0000000000000D+00
   414  4.1300000000000D+00  0.0000000000000D+00  0.0000000000000D+00
   415  4.1400000000000D+00  0.0000000000000D+00  0.0000000000000D+00
   416  4.1500000000000D+00  0.0000000000000D+00  0.0000000000000D+00
   417  4.1600000000000D+00  0.0000000000000D+00  0.0000000000000D+00
   418  4.1700000000000D+00  0.0000000000000D+00  0.0000000000000D+00
   419  4.1800000000000D+00  0.0000000000000D+00  0.0000000000000D+00
   420  4.1900000000000D+00  0.0000000000000D+00  0.0000000000000D+00
   421  4.2000000000000D+00  0.0000000000000D+00  0.0000000000000D+00
   422  4.2100000000000D+00  0.0000000000000D+00  0.0000000000000D+00