Ru    ONCVPSP-3.3.0  r_core=   1.35650   1.40592   1.30881
     44.0000     16.0000      220117    zatom,zion,pspd
     8      11   2     4   600     0    pspcod,pspxc,lmax,lloc,mmax,r2well
  5.99000000  0.00000000  0.00000000    rchrg fchrg qchrg
     2     2     2     0     0    nproj
     1     1           extension_switch
   0                         1.4629791333370D+01  1.1531908622940D+00
     1  0.0000000000000D+00 -8.4737594718831D-10  4.3277602612690D-09
     2  1.0000000000000D-02  7.1797329269146D-02 -4.1039151360131D-02
     3  2.0000000000000D-02  1.4342826839178D-01 -8.1748681991279D-02
     4  3.0000000000000D-02  2.1472734746355D-01 -1.2180296667311D-01
     5  4.0000000000000D-02  2.8553092433653D-01 -1.6088430515924D-01
     6  5.0000000000000D-02  3.5567806689901D-01 -1.9868672068377D-01
     7  6.0000000000000D-02  4.2501139805225D-01 -2.3491956483071D-01
     8  7.0000000000000D-02  4.9337789196453D-01 -2.6931086939773D-01
     9  8.0000000000000D-02  5.6062961102962D-01 -3.0161039021338D-01
    10  9.0000000000000D-02  6.2662437398931D-01 -3.3159229314054D-01
    11  1.0000000000000D-01  6.9122634687811D-01 -3.5905743863325D-01
    12  1.1000000000000D-01  7.5430654979430D-01 -3.8383522810463D-01
    13  1.2000000000000D-01  8.1574327397101D-01 -4.0578498289968D-01
    14  1.3000000000000D-01  8.7542240518877D-01 -4.2479683471975D-01
    15  1.4000000000000D-01  9.3323765121136D-01 -4.4079211478416D-01
    16  1.5000000000000D-01  9.8909067260966D-01 -4.5372323769551D-01
    17  1.6000000000000D-01  1.0428911180362D+00 -4.6357308475441D-01
    18  1.7000000000000D-01  1.0945565666960D+00 -4.7035390019871D-01
    19  1.8000000000000D-01  1.1440123823960D+00 -4.7410572237269D-01
    20  1.9000000000000D-01  1.1911914851228D+00 -4.7489438002016D-01
    21  2.0000000000000D-01  1.2360340475575D+00 -4.7280909159891D-01
    22  2.1000000000000D-01  1.2784871252761D+00 -4.6795971260160D-01
    23  2.2000000000000D-01  1.3185042305652D+00 -4.6047368221413D-01
    24  2.3000000000000D-01  1.3560448607921D+00 -4.5049272613567D-01
    25  2.4000000000000D-01  1.3910739930875D+00 -4.3816937692532D-01
    26  2.5000000000000D-01  1.4235615577013D+00 -4.2366337674416D-01
    27  2.6000000000000D-01  1.4534819027833D+00 -4.0713802976184D-01
    28  2.7000000000000D-01  1.4808132634875D+00 -3.8875657274369D-01
    29  2.8000000000000D-01  1.5055372482225D+00 -3.6867863239587D-01
    30  2.9000000000000D-01  1.5276383545472D+00 -3.4705683691256D-01
    31  3.0000000000000D-01  1.5471035266554D+00 -3.2403364684655D-01
    32  3.1000000000000D-01  1.5639217656139D+00 -2.9973846694424D-01
    33  3.2000000000000D-01  1.5780838025154D+00 -2.7428509599110D-01
    34  3.3000000000000D-01  1.5895818435050D+00 -2.4776956607665D-01
    35  3.4000000000000D-01  1.5984093942561D+00 -2.2026841608781D-01
    36  3.5000000000000D-01  1.6045611699166D+00 -1.9183743678359D-01
    37  3.6000000000000D-01  1.6080330948639D+00 -1.6251091660465D-01
    38  3.7000000000000D-01  1.6088223948066D+00 -1.3230140856434D-01
    39  3.8000000000000D-01  1.6069277818940D+00 -1.0120002929103D-01
    40  3.9000000000000D-01  1.6023497315661D+00 -6.9177291702466D-02
    41  4.0000000000000D-01  1.5950908479351D+00 -3.6184463046285D-02
    42  4.1000000000000D-01  1.5851563125608D+00 -2.1554303037887D-03
    43  4.2000000000000D-01  1.5725544096109D+00  3.2990954608438D-02
    44  4.3000000000000D-01  1.5572971186059D+00  6.9348086627162D-02
    45  4.4000000000000D-01  1.5394007642781D+00  1.0701842183077D-01
    46  4.5000000000000D-01  1.5188867115525D+00  1.4610994779999D-01
    47  4.6000000000000D-01  1.4957820923132D+00  1.8673237088372D-01
    48  4.7000000000000D-01  1.4701205494840D+00  2.2899308752325D-01
    49  4.8000000000000D-01  1.4419429830402D+00  2.7299301204686D-01
    50  4.9000000000000D-01  1.4112982819143D+00  3.1882233744107D-01
    51  5.0000000000000D-01  1.3782440253643D+00  3.6655630844236D-01
    52  5.1000000000000D-01  1.3428471372614D+00  4.1625108781185D-01
    53  5.2000000000000D-01  1.3051844769297D+00  4.6793979680374D-01
    54  5.3000000000000D-01  1.2653433506318D+00  5.2162880959230D-01
    55  5.4000000000000D-01  1.2234219285518D+00  5.7729437878787D-01
    56  5.5000000000000D-01  1.1795295531594D+00  6.3487966515410D-01
    57  5.6000000000000D-01  1.1337869261462D+00  6.9429223930378D-01
    58  5.7000000000000D-01  1.0863261626891D+00  7.5540211655071D-01
    59  5.8000000000000D-01  1.0372907035897D+00  8.1804037831909D-01
    60  5.9000000000000D-01  9.8683507784504D-01  8.8199842469509D-01
    61  6.0000000000000D-01  9.3512451039334D-01  9.4702789293376D-01
    62  6.1000000000000D-01  8.8233437211326D-01  1.0128412662074D+00
    63  6.2000000000000D-01  8.2864947160061D-01  1.0791131857308D+00
    64  6.3000000000000D-01  7.7426319077837D-01  1.1454824677718D+00
    65  6.4000000000000D-01  7.1937646894065D-01  1.2115548152667D+00
    66  6.5000000000000D-01  6.6419664239736D-01  1.2769062017832D+00
    67  6.6000000000000D-01  6.0893614938341D-01  1.3410868938308D+00
    68  6.7000000000000D-01  5.5381111230462D-01  1.4036260661057D+00
    69  6.8000000000000D-01  4.9903981168525D-01  1.4640369532980D+00
    70  6.9000000000000D-01  4.4484106828403D-01  1.5218224719396D+00
    71  7.0000000000000D-01  3.9143255174740D-01  1.5764812364912D+00
    72  7.1000000000000D-01  3.3902903582509D-01  1.6275138856498D+00
    73  7.2000000000000D-01  2.8784062155446D-01  1.6744296278760D+00
    74  7.3000000000000D-01  2.3807095089317D-01  1.7167529095304D+00
    75  7.4000000000000D-01  1.8991543402903D-01  1.7540301048677D+00
    76  7.5000000000000D-01  1.4355951399820D-01  1.7858361245701D+00
    77  7.6000000000000D-01  9.9176992288399D-02  1.8117808385669D+00
    78  7.7000000000000D-01  5.6928438780015D-02  1.8315152096494D+00
    79  7.8000000000000D-01  1.6959708689940D-02  1.8447370368306D+00
    80  7.9000000000000D-01 -2.0599411870127D-02  1.8511962115370D+00
    81  8.0000000000000D-01 -5.5636411513701D-02  1.8506993954860D+00
    82  8.1000000000000D-01 -8.8057091912128D-02  1.8431140364508D+00
    83  8.2000000000000D-01 -1.1778642242935D-01  1.8283716469324D+00
    84  8.3000000000000D-01 -1.4476919699026D-01  1.8064702809305D+00
    85  8.4000000000000D-01 -1.6897048171009D-01  1.7774761553895D+00
    86  8.5000000000000D-01 -1.9037584462475D-01  1.7415243753100D+00
    87  8.6000000000000D-01 -2.0899136185013D-01  1.6988187347898D+00
    88  8.7000000000000D-01 -2.2484339761663D-01  1.6496305801750D+00
    89  8.8000000000000D-01 -2.3797815882678D-01  1.5942967358444D+00
    90  8.9000000000000D-01 -2.4846102801844D-01  1.5332165076957D+00
    91  9.0000000000000D-01 -2.5637568183357D-01  1.4668477939134D+00
    92  9.1000000000000D-01 -2.6182300524087D-01  1.3957023468345D+00
    93  9.2000000000000D-01 -2.6491981478992D-01  1.3203402434575D+00
    94  9.3000000000000D-01 -2.6579740703407D-01  1.2413636351357D+00
    95  9.4000000000000D-01 -2.6459995090310D-01  1.1594098590247D+00
    96  9.5000000000000D-01 -2.6148274518845D-01  1.0751440047226D+00
    97  9.6000000000000D-01 -2.5661036438484D-01  9.8925103904372D-01
    98  9.7000000000000D-01 -2.5015471787317D-01  9.0242759984631D-01
    99  9.8000000000000D-01 -2.4229304880600D-01  8.1537357614381D-01
   100  9.9000000000000D-01 -2.3320590001636D-01  7.2878359614994D-01
   101  1.0000000000000D+00 -2.2307507486167D-01  6.4333854764303D-01
   102  1.0100000000000D+00 -2.1208162102227D-01  5.5969725555990D-01
   103  1.0200000000000D+00 -2.0040386498234D-01  4.7848844042318D-01
   104  1.0300000000000D+00 -1.8821552419099D-01  4.0030307788879D-01
   105  1.0400000000000D+00 -1.7568392270771D-01  3.2568727425326D-01
   106  1.0500000000000D+00 -1.6296833459118D-01  2.5513576569201D-01
   107  1.0600000000000D+00 -1.5021847737083D-01  1.8908614021001D-01
   108  1.0700000000000D+00 -1.3757317549817D-01  1.2791387008622D-01
   109  1.0800000000000D+00 -1.2515921113956D-01  7.1928230959100D-02
   110  1.0900000000000D+00 -1.1309037658327D-01  2.1369169517291D-02
   111  1.1000000000000D+00 -1.0146673951929D-01 -2.3594832091018D-02
   112  1.1100000000000D+00 -9.0374129049466D-02 -6.2867862645028D-02
   113  1.1200000000000D+00 -7.9883846565583D-02 -9.6426643654611D-02
   114  1.1300000000000D+00 -7.0052602204724D-02 -1.2431954696547D-01
   115  1.1400000000000D+00 -6.0922673790322D-02 -1.4666458603214D-01
   116  1.1500000000000D+00 -5.2522282060620D-02 -1.6364641301345D-01
   117  1.1600000000000D+00 -4.4866171628585D-02 -1.7551237388526D-01
   118  1.1700000000000D+00 -3.7956384260708D-02 -1.8256768689525D-01
   119  1.1800000000000D+00 -3.1783207919092D-02 -1.8516982412543D-01
   120  1.1900000000000D+00 -2.6326282026165D-02 -1.8372218964167D-01
   121  1.2000000000000D+00 -2.1555836403763D-02 -1.7866720150211D-01
   122  1.2100000000000D+00 -1.7434039335898D-02 -1.7047889404181D-01
   123  1.2200000000000D+00 -1.3916428757894D-02 -1.5965516348621D-01
   124  1.2300000000000D+00 -1.0953397971804D-02 -1.4670979179127D-01
   125  1.2400000000000D+00 -8.4917071422516D-03 -1.3216438417332D-01
   126  1.2500000000000D+00 -6.4759910170287D-03 -1.1654035944531D-01
   127  1.2600000000000D+00 -4.8502326833556D-03 -1.0035113501977D-01
   128  1.2700000000000D+00 -3.5591716672480D-03 -8.4094657083593D-02
   129  1.2800000000000D+00 -2.5496289049114D-03 -6.8246349676723D-02
   130  1.2900000000000D+00 -1.7717031765745D-03 -5.3252711696018D-02
   131  1.3000000000000D+00 -1.1799145058767D-03 -3.9525134594150D-02
   132  1.3100000000000D+00 -7.3364556295390D-04 -2.7439157685239D-02
   133  1.3200000000000D+00 -3.9902019926105D-04 -1.7322310579699D-02
   134  1.3300000000000D+00 -1.5208316828633D-04 -9.3802031698873D-03
   135  1.3400000000000D+00  2.2458131120913D-05 -3.9479539034623D-03
   136  1.3500000000000D+00  1.2994736332203D-04 -1.2212221000232D-03
   137  1.3600000000000D+00  1.2071507569089D-04 -2.5003855752498D-04
   138  1.3700000000000D+00  2.3774203150091D-05 -1.1765046707167D-05
   139  1.3800000000000D+00 -1.6970318377165D-05 -8.9153612011652D-07
   140  1.3900000000000D+00  6.6163043465523D-07 -4.6943874533716D-07
   141  1.4000000000000D+00  3.1655750675352D-06 -1.5566952511724D-06
   142  1.4100000000000D+00 -3.0126649469594D-07  1.0104581467041D-06
   143  1.4200000000000D+00 -1.8908287723654D-07  6.3419044955113D-07
   144  1.4300000000000D+00  0.0000000000000D+00  0.0000000000000D+00
   145  1.4400000000000D+00  0.0000000000000D+00  0.0000000000000D+00
   146  1.4500000000000D+00  0.0000000000000D+00  0.0000000000000D+00
   147  1.4600000000000D+00  0.0000000000000D+00  0.0000000000000D+00
   148  1.4700000000000D+00  0.0000000000000D+00  0.0000000000000D+00
   149  1.4800000000000D+00  0.0000000000000D+00  0.0000000000000D+00
   150  1.4900000000000D+00  0.0000000000000D+00  0.0000000000000D+00
   151  1.5000000000000D+00  0.0000000000000D+00  0.0000000000000D+00
   152  1.5100000000000D+00  0.0000000000000D+00  0.0000000000000D+00
   153  1.5200000000000D+00  0.0000000000000D+00  0.0000000000000D+00
   154  1.5300000000000D+00  0.0000000000000D+00  0.0000000000000D+00
   155  1.5400000000000D+00  0.0000000000000D+00  0.0000000000000D+00
   156  1.5500000000000D+00  0.0000000000000D+00  0.0000000000000D+00
   157  1.5600000000000D+00  0.0000000000000D+00  0.0000000000000D+00
   158  1.5700000000000D+00  0.0000000000000D+00  0.0000000000000D+00
   159  1.5800000000000D+00  0.0000000000000D+00  0.0000000000000D+00
   160  1.5900000000000D+00  0.0000000000000D+00  0.0000000000000D+00
   161  1.6000000000000D+00  0.0000000000000D+00  0.0000000000000D+00
   162  1.6100000000000D+00  0.0000000000000D+00  0.0000000000000D+00
   163  1.6200000000000D+00  0.0000000000000D+00  0.0000000000000D+00
   164  1.6300000000000D+00  0.0000000000000D+00  0.0000000000000D+00
   165  1.6400000000000D+00  0.0000000000000D+00  0.0000000000000D+00
   166  1.6500000000000D+00  0.0000000000000D+00  0.0000000000000D+00
   167  1.6600000000000D+00  0.0000000000000D+00  0.0000000000000D+00
   168  1.6700000000000D+00  0.0000000000000D+00  0.0000000000000D+00
   169  1.6800000000000D+00  0.0000000000000D+00  0.0000000000000D+00
   170  1.6900000000000D+00  0.0000000000000D+00  0.0000000000000D+00
   171  1.7000000000000D+00  0.0000000000000D+00  0.0000000000000D+00
   172  1.7100000000000D+00  0.0000000000000D+00  0.0000000000000D+00
   173  1.7200000000000D+00  0.0000000000000D+00  0.0000000000000D+00
   174  1.7300000000000D+00  0.0000000000000D+00  0.0000000000000D+00
   175  1.7400000000000D+00  0.0000000000000D+00  0.0000000000000D+00
   176  1.7500000000000D+00  0.0000000000000D+00  0.0000000000000D+00
   177  1.7600000000000D+00  0.0000000000000D+00  0.0000000000000D+00
   178  1.7700000000000D+00  0.0000000000000D+00  0.0000000000000D+00
   179  1.7800000000000D+00  0.0000000000000D+00  0.0000000000000D+00
   180  1.7900000000000D+00  0.0000000000000D+00  0.0000000000000D+00
   181  1.8000000000000D+00  0.0000000000000D+00  0.0000000000000D+00
   182  1.8100000000000D+00  0.0000000000000D+00  0.0000000000000D+00
   183  1.8200000000000D+00  0.0000000000000D+00  0.0000000000000D+00
   184  1.8300000000000D+00  0.0000000000000D+00  0.0000000000000D+00
   185  1.8400000000000D+00  0.0000000000000D+00  0.0000000000000D+00
   186  1.8500000000000D+00  0.0000000000000D+00  0.0000000000000D+00
   187  1.8600000000000D+00  0.0000000000000D+00  0.0000000000000D+00
   188  1.8700000000000D+00  0.0000000000000D+00  0.0000000000000D+00
   189  1.8800000000000D+00  0.0000000000000D+00  0.0000000000000D+00
   190  1.8900000000000D+00  0.0000000000000D+00  0.0000000000000D+00
   191  1.9000000000000D+00  0.0000000000000D+00  0.0000000000000D+00
   192  1.9100000000000D+00  0.0000000000000D+00  0.0000000000000D+00
   193  1.9200000000000D+00  0.0000000000000D+00  0.0000000000000D+00
   194  1.9300000000000D+00  0.0000000000000D+00  0.0000000000000D+00
   195  1.9400000000000D+00  0.0000000000000D+00  0.0000000000000D+00
   196  1.9500000000000D+00  0.0000000000000D+00  0.0000000000000D+00
   197  1.9600000000000D+00  0.0000000000000D+00  0.0000000000000D+00
   198  1.9700000000000D+00  0.0000000000000D+00  0.0000000000000D+00
   199  1.9800000000000D+00  0.0000000000000D+00  0.0000000000000D+00
   200  1.9900000000000D+00  0.0000000000000D+00  0.0000000000000D+00
   201  2.0000000000000D+00  0.0000000000000D+00  0.0000000000000D+00
   202  2.0100000000000D+00  0.0000000000000D+00  0.0000000000000D+00
   203  2.0200000000000D+00  0.0000000000000D+00  0.0000000000000D+00
   204  2.0300000000000D+00  0.0000000000000D+00  0.0000000000000D+00
   205  2.0400000000000D+00  0.0000000000000D+00  0.0000000000000D+00
   206  2.0500000000000D+00  0.0000000000000D+00  0.0000000000000D+00
   207  2.0600000000000D+00  0.0000000000000D+00  0.0000000000000D+00
   208  2.0700000000000D+00  0.0000000000000D+00  0.0000000000000D+00
   209  2.0800000000000D+00  0.0000000000000D+00  0.0000000000000D+00
   210  2.0900000000000D+00  0.0000000000000D+00  0.0000000000000D+00
   211  2.1000000000000D+00  0.0000000000000D+00  0.0000000000000D+00
   212  2.1100000000000D+00  0.0000000000000D+00  0.0000000000000D+00
   213  2.1200000000000D+00  0.0000000000000D+00  0.0000000000000D+00
   214  2.1300000000000D+00  0.0000000000000D+00  0.0000000000000D+00
   215  2.1400000000000D+00  0.0000000000000D+00  0.0000000000000D+00
   216  2.1500000000000D+00  0.0000000000000D+00  0.0000000000000D+00
   217  2.1600000000000D+00  0.0000000000000D+00  0.0000000000000D+00
   218  2.1700000000000D+00  0.0000000000000D+00  0.0000000000000D+00
   219  2.1800000000000D+00  0.0000000000000D+00  0.0000000000000D+00
   220  2.1900000000000D+00  0.0000000000000D+00  0.0000000000000D+00
   221  2.2000000000000D+00  0.0000000000000D+00  0.0000000000000D+00
   222  2.2100000000000D+00  0.0000000000000D+00  0.0000000000000D+00
   223  2.2200000000000D+00  0.0000000000000D+00  0.0000000000000D+00
   224  2.2300000000000D+00  0.0000000000000D+00  0.0000000000000D+00
   225  2.2400000000000D+00  0.0000000000000D+00  0.0000000000000D+00
   226  2.2500000000000D+00  0.0000000000000D+00  0.0000000000000D+00
   227  2.2600000000000D+00  0.0000000000000D+00  0.0000000000000D+00
   228  2.2700000000000D+00  0.0000000000000D+00  0.0000000000000D+00
   229  2.2800000000000D+00  0.0000000000000D+00  0.0000000000000D+00
   230  2.2900000000000D+00  0.0000000000000D+00  0.0000000000000D+00
   231  2.3000000000000D+00  0.0000000000000D+00  0.0000000000000D+00
   232  2.3100000000000D+00  0.0000000000000D+00  0.0000000000000D+00
   233  2.3200000000000D+00  0.0000000000000D+00  0.0000000000000D+00
   234  2.3300000000000D+00  0.0000000000000D+00  0.0000000000000D+00
   235  2.3400000000000D+00  0.0000000000000D+00  0.0000000000000D+00
   236  2.3500000000000D+00  0.0000000000000D+00  0.0000000000000D+00
   237  2.3600000000000D+00  0.0000000000000D+00  0.0000000000000D+00
   238  2.3700000000000D+00  0.0000000000000D+00  0.0000000000000D+00
   239  2.3800000000000D+00  0.0000000000000D+00  0.0000000000000D+00
   240  2.3900000000000D+00  0.0000000000000D+00  0.0000000000000D+00
   241  2.4000000000000D+00  0.0000000000000D+00  0.0000000000000D+00
   242  2.4100000000000D+00  0.0000000000000D+00  0.0000000000000D+00
   243  2.4200000000000D+00  0.0000000000000D+00  0.0000000000000D+00
   244  2.4300000000000D+00  0.0000000000000D+00  0.0000000000000D+00
   245  2.4400000000000D+00  0.0000000000000D+00  0.0000000000000D+00
   246  2.4500000000000D+00  0.0000000000000D+00  0.0000000000000D+00
   247  2.4600000000000D+00  0.0000000000000D+00  0.0000000000000D+00
   248  2.4700000000000D+00  0.0000000000000D+00  0.0000000000000D+00
   249  2.4800000000000D+00  0.0000000000000D+00  0.0000000000000D+00
   250  2.4900000000000D+00  0.0000000000000D+00  0.0000000000000D+00
   251  2.5000000000000D+00  0.0000000000000D+00  0.0000000000000D+00
   252  2.5100000000000D+00  0.0000000000000D+00  0.0000000000000D+00
   253  2.5200000000000D+00  0.0000000000000D+00  0.0000000000000D+00
   254  2.5300000000000D+00  0.0000000000000D+00  0.0000000000000D+00
   255  2.5400000000000D+00  0.0000000000000D+00  0.0000000000000D+00
   256  2.5500000000000D+00  0.0000000000000D+00  0.0000000000000D+00
   257  2.5600000000000D+00  0.0000000000000D+00  0.0000000000000D+00
   258  2.5700000000000D+00  0.0000000000000D+00  0.0000000000000D+00
   259  2.5800000000000D+00  0.0000000000000D+00  0.0000000000000D+00
   260  2.5900000000000D+00  0.0000000000000D+00  0.0000000000000D+00
   261  2.6000000000000D+00  0.0000000000000D+00  0.0000000000000D+00
   262  2.6100000000000D+00  0.0000000000000D+00  0.0000000000000D+00
   263  2.6200000000000D+00  0.0000000000000D+00  0.0000000000000D+00
   264  2.6300000000000D+00  0.0000000000000D+00  0.0000000000000D+00
   265  2.6400000000000D+00  0.0000000000000D+00  0.0000000000000D+00
   266  2.6500000000000D+00  0.0000000000000D+00  0.0000000000000D+00
   267  2.6600000000000D+00  0.0000000000000D+00  0.0000000000000D+00
   268  2.6700000000000D+00  0.0000000000000D+00  0.0000000000000D+00
   269  2.6800000000000D+00  0.0000000000000D+00  0.0000000000000D+00
   270  2.6900000000000D+00  0.0000000000000D+00  0.0000000000000D+00
   271  2.7000000000000D+00  0.0000000000000D+00  0.0000000000000D+00
   272  2.7100000000000D+00  0.0000000000000D+00  0.0000000000000D+00
   273  2.7200000000000D+00  0.0000000000000D+00  0.0000000000000D+00
   274  2.7300000000000D+00  0.0000000000000D+00  0.0000000000000D+00
   275  2.7400000000000D+00  0.0000000000000D+00  0.0000000000000D+00
   276  2.7500000000000D+00  0.0000000000000D+00  0.0000000000000D+00
   277  2.7600000000000D+00  0.0000000000000D+00  0.0000000000000D+00
   278  2.7700000000000D+00  0.0000000000000D+00  0.0000000000000D+00
   279  2.7800000000000D+00  0.0000000000000D+00  0.0000000000000D+00
   280  2.7900000000000D+00  0.0000000000000D+00  0.0000000000000D+00
   281  2.8000000000000D+00  0.0000000000000D+00  0.0000000000000D+00
   282  2.8100000000000D+00  0.0000000000000D+00  0.0000000000000D+00
   283  2.8200000000000D+00  0.0000000000000D+00  0.0000000000000D+00
   284  2.8300000000000D+00  0.0000000000000D+00  0.0000000000000D+00
   285  2.8400000000000D+00  0.0000000000000D+00  0.0000000000000D+00
   286  2.8500000000000D+00  0.0000000000000D+00  0.0000000000000D+00
   287  2.8600000000000D+00  0.0000000000000D+00  0.0000000000000D+00
   288  2.8700000000000D+00  0.0000000000000D+00  0.0000000000000D+00
   289  2.8800000000000D+00  0.0000000000000D+00  0.0000000000000D+00
   290  2.8900000000000D+00  0.0000000000000D+00  0.0000000000000D+00
   291  2.9000000000000D+00  0.0000000000000D+00  0.0000000000000D+00
   292  2.9100000000000D+00  0.0000000000000D+00  0.0000000000000D+00
   293  2.9200000000000D+00  0.0000000000000D+00  0.0000000000000D+00
   294  2.9300000000000D+00  0.0000000000000D+00  0.0000000000000D+00
   295  2.9400000000000D+00  0.0000000000000D+00  0.0000000000000D+00
   296  2.9500000000000D+00  0.0000000000000D+00  0.0000000000000D+00
   297  2.9600000000000D+00  0.0000000000000D+00  0.0000000000000D+00
   298  2.9700000000000D+00  0.0000000000000D+00  0.0000000000000D+00
   299  2.9800000000000D+00  0.0000000000000D+00  0.0000000000000D+00
   300  2.9900000000000D+00  0.0000000000000D+00  0.0000000000000D+00
   301  3.0000000000000D+00  0.0000000000000D+00  0.0000000000000D+00
   302  3.0100000000000D+00  0.0000000000000D+00  0.0000000000000D+00
   303  3.0200000000000D+00  0.0000000000000D+00  0.0000000000000D+00
   304  3.0300000000000D+00  0.0000000000000D+00  0.0000000000000D+00
   305  3.0400000000000D+00  0.0000000000000D+00  0.0000000000000D+00
   306  3.0500000000000D+00  0.0000000000000D+00  0.0000000000000D+00
   307  3.0600000000000D+00  0.0000000000000D+00  0.0000000000000D+00
   308  3.0700000000000D+00  0.0000000000000D+00  0.0000000000000D+00
   309  3.0800000000000D+00  0.0000000000000D+00  0.0000000000000D+00
   310  3.0900000000000D+00  0.0000000000000D+00  0.0000000000000D+00
   311  3.1000000000000D+00  0.0000000000000D+00  0.0000000000000D+00
   312  3.1100000000000D+00  0.0000000000000D+00  0.0000000000000D+00
   313  3.1200000000000D+00  0.0000000000000D+00  0.0000000000000D+00
   314  3.1300000000000D+00  0.0000000000000D+00  0.0000000000000D+00
   315  3.1400000000000D+00  0.0000000000000D+00  0.0000000000000D+00
   316  3.1500000000000D+00  0.0000000000000D+00  0.0000000000000D+00
   317  3.1600000000000D+00  0.0000000000000D+00  0.0000000000000D+00
   318  3.1700000000000D+00  0.0000000000000D+00  0.0000000000000D+00
   319  3.1800000000000D+00  0.0000000000000D+00  0.0000000000000D+00
   320  3.1900000000000D+00  0.0000000000000D+00  0.0000000000000D+00
   321  3.2000000000000D+00  0.0000000000000D+00  0.0000000000000D+00
   322  3.2100000000000D+00  0.0000000000000D+00  0.0000000000000D+00
   323  3.2200000000000D+00  0.0000000000000D+00  0.0000000000000D+00
   324  3.2300000000000D+00  0.0000000000000D+00  0.0000000000000D+00
   325  3.2400000000000D+00  0.0000000000000D+00  0.0000000000000D+00
   326  3.2500000000000D+00  0.0000000000000D+00  0.0000000000000D+00
   327  3.2600000000000D+00  0.0000000000000D+00  0.0000000000000D+00
   328  3.2700000000000D+00  0.0000000000000D+00  0.0000000000000D+00
   329  3.2800000000000D+00  0.0000000000000D+00  0.0000000000000D+00
   330  3.2900000000000D+00  0.0000000000000D+00  0.0000000000000D+00
   331  3.3000000000000D+00  0.0000000000000D+00  0.0000000000000D+00
   332  3.3100000000000D+00  0.0000000000000D+00  0.0000000000000D+00
   333  3.3200000000000D+00  0.0000000000000D+00  0.0000000000000D+00
   334  3.3300000000000D+00  0.0000000000000D+00  0.0000000000000D+00
   335  3.3400000000000D+00  0.0000000000000D+00  0.0000000000000D+00
   336  3.3500000000000D+00  0.0000000000000D+00  0.0000000000000D+00
   337  3.3600000000000D+00  0.0000000000000D+00  0.0000000000000D+00
   338  3.3700000000000D+00  0.0000000000000D+00  0.0000000000000D+00
   339  3.3800000000000D+00  0.0000000000000D+00  0.0000000000000D+00
   340  3.3900000000000D+00  0.0000000000000D+00  0.0000000000000D+00
   341  3.4000000000000D+00  0.0000000000000D+00  0.0000000000000D+00
   342  3.4100000000000D+00  0.0000000000000D+00  0.0000000000000D+00
   343  3.4200000000000D+00  0.0000000000000D+00  0.0000000000000D+00
   344  3.4300000000000D+00  0.0000000000000D+00  0.0000000000000D+00
   345  3.4400000000000D+00  0.0000000000000D+00  0.0000000000000D+00
   346  3.4500000000000D+00  0.0000000000000D+00  0.0000000000000D+00
   347  3.4600000000000D+00  0.0000000000000D+00  0.0000000000000D+00
   348  3.4700000000000D+00  0.0000000000000D+00  0.0000000000000D+00
   349  3.4800000000000D+00  0.0000000000000D+00  0.0000000000000D+00
   350  3.4900000000000D+00  0.0000000000000D+00  0.0000000000000D+00
   351  3.5000000000000D+00  0.0000000000000D+00  0.0000000000000D+00
   352  3.5100000000000D+00  0.0000000000000D+00  0.0000000000000D+00
   353  3.5200000000000D+00  0.0000000000000D+00  0.0000000000000D+00
   354  3.5300000000000D+00  0.0000000000000D+00  0.0000000000000D+00
   355  3.5400000000000D+00  0.0000000000000D+00  0.0000000000000D+00
   356  3.5500000000000D+00  0.0000000000000D+00  0.0000000000000D+00
   357  3.5600000000000D+00  0.0000000000000D+00  0.0000000000000D+00
   358  3.5700000000000D+00  0.0000000000000D+00  0.0000000000000D+00
   359  3.5800000000000D+00  0.0000000000000D+00  0.0000000000000D+00
   360  3.5900000000000D+00  0.0000000000000D+00  0.0000000000000D+00
   361  3.6000000000000D+00  0.0000000000000D+00  0.0000000000000D+00
   362  3.6100000000000D+00  0.0000000000000D+00  0.0000000000000D+00
   363  3.6200000000000D+00  0.0000000000000D+00  0.0000000000000D+00
   364  3.6300000000000D+00  0.0000000000000D+00  0.0000000000000D+00
   365  3.6400000000000D+00  0.0000000000000D+00  0.0000000000000D+00
   366  3.6500000000000D+00  0.0000000000000D+00  0.0000000000000D+00
   367  3.6600000000000D+00  0.0000000000000D+00  0.0000000000000D+00
   368  3.6700000000000D+00  0.0000000000000D+00  0.0000000000000D+00
   369  3.6800000000000D+00  0.0000000000000D+00  0.0000000000000D+00
   370  3.6900000000000D+00  0.0000000000000D+00  0.0000000000000D+00
   371  3.7000000000000D+00  0.0000000000000D+00  0.0000000000000D+00
   372  3.7100000000000D+00  0.0000000000000D+00  0.0000000000000D+00
   373  3.7200000000000D+00  0.0000000000000D+00  0.0000000000000D+00
   374  3.7300000000000D+00  0.0000000000000D+00  0.0000000000000D+00
   375  3.7400000000000D+00  0.0000000000000D+00  0.0000000000000D+00
   376  3.7500000000000D+00  0.0000000000000D+00  0.0000000000000D+00
   377  3.7600000000000D+00  0.0000000000000D+00  0.0000000000000D+00
   378  3.7700000000000D+00  0.0000000000000D+00  0.0000000000000D+00
   379  3.7800000000000D+00  0.0000000000000D+00  0.0000000000000D+00
   380  3.7900000000000D+00  0.0000000000000D+00  0.0000000000000D+00
   381  3.8000000000000D+00  0.0000000000000D+00  0.0000000000000D+00
   382  3.8100000000000D+00  0.0000000000000D+00  0.0000000000000D+00
   383  3.8200000000000D+00  0.0000000000000D+00  0.0000000000000D+00
   384  3.8300000000000D+00  0.0000000000000D+00  0.0000000000000D+00
   385  3.8400000000000D+00  0.0000000000000D+00  0.0000000000000D+00
   386  3.8500000000000D+00  0.0000000000000D+00  0.0000000000000D+00
   387  3.8600000000000D+00  0.0000000000000D+00  0.0000000000000D+00
   388  3.8700000000000D+00  0.0000000000000D+00  0.0000000000000D+00
   389  3.8800000000000D+00  0.0000000000000D+00  0.0000000000000D+00
   390  3.8900000000000D+00  0.0000000000000D+00  0.0000000000000D+00
   391  3.9000000000000D+00  0.0000000000000D+00  0.0000000000000D+00
   392  3.9100000000000D+00  0.0000000000000D+00  0.0000000000000D+00
   393  3.9200000000000D+00  0.0000000000000D+00  0.0000000000000D+00
   394  3.9300000000000D+00  0.0000000000000D+00  0.0000000000000D+00
   395  3.9400000000000D+00  0.0000000000000D+00  0.0000000000000D+00
   396  3.9500000000000D+00  0.0000000000000D+00  0.0000000000000D+00
   397  3.9600000000000D+00  0.0000000000000D+00  0.0000000000000D+00
   398  3.9700000000000D+00  0.0000000000000D+00  0.0000000000000D+00
   399  3.9800000000000D+00  0.0000000000000D+00  0.0000000000000D+00
   400  3.9900000000000D+00  0.0000000000000D+00  0.0000000000000D+00
   401  4.0000000000000D+00  0.0000000000000D+00  0.0000000000000D+00
   402  4.0100000000000D+00  0.0000000000000D+00  0.0000000000000D+00
   403  4.0200000000000D+00  0.0000000000000D+00  0.0000000000000D+00
   404  4.0300000000000D+00  0.0000000000000D+00  0.0000000000000D+00
   405  4.0400000000000D+00  0.0000000000000D+00  0.0000000000000D+00
   406  4.0500000000000D+00  0.0000000000000D+00  0.0000000000000D+00
   407  4.0600000000000D+00  0.0000000000000D+00  0.0000000000000D+00
   408  4.0700000000000D+00  0.0000000000000D+00  0.0000000000000D+00
   409  4.0800000000000D+00  0.0000000000000D+00  0.0000000000000D+00
   410  4.0900000000000D+00  0.0000000000000D+00  0.0000000000000D+00
   411  4.1000000000000D+00  0.0000000000000D+00  0.0000000000000D+00
   412  4.1100000000000D+00  0.0000000000000D+00  0.0000000000000D+00
   413  4.1200000000000D+00  0.0000000000000D+00  0.0000000000000D+00
   414  4.1300000000000D+00  0.0000000000000D+00  0.0000000000000D+00
   415  4.1400000000000D+00  0.0000000000000D+00  0.0000000000000D+00
   416  4.1500000000000D+00  0.0000000000000D+00  0.0000000000000D+00
   417  4.1600000000000D+00  0.0000000000000D+00  0.0000000000000D+00
   418  4.1700000000000D+00  0.0000000000000D+00  0.0000000000000D+00
   419  4.1800000000000D+00  0.0000000000000D+00  0.0000000000000D+00
   420  4.1900000000000D+00  0.0000000000000D+00  0.0000000000000D+00
   421  4.2000000000000D+00  0.0000000000000D+00  0.0000000000000D+00
   422  4.2100000000000D+00  0.0000000000000D+00  0.0000000000000D+00