N     ONCVPSP-3.3.0  r_core=   1.20551   1.35824
      7.0000      5.0000      220117    zatom,zion,pspd
     8      11   1     4   600     0    pspcod,pspxc,lmax,lloc,mmax,r2well
  5.99000000  0.00000000  0.00000000    rchrg fchrg qchrg
     2     2     0     0     0    nproj
     1     1           extension_switch
   0                         7.4945088249562D+00  6.3630495413867D-01
     1  0.0000000000000D+00 -3.3432512314135D-09  1.7911059801978D-08
     2  1.0000000000000D-02  9.4537664635713D-02 -6.0658145199899D-02
     3  2.0000000000000D-02  1.8873006399924D-01 -1.2059666823903D-01
     4  3.0000000000000D-02  2.8223476999337D-01 -1.7910733759701D-01
     5  4.0000000000000D-02  3.7471498423431D-01 -2.3550447692504D-01
     6  5.0000000000000D-02  4.6584224219726D-01 -2.8913568207940D-01
     7  6.0000000000000D-02  5.5529898695619D-01 -3.3939187861198D-01
     8  7.0000000000000D-02  6.4278097307368D-01 -3.8571652144307D-01
     9  8.0000000000000D-02  7.2799946454039D-01 -4.2761375635241D-01
    10  9.0000000000000D-02  8.1068319471156D-01 -4.6465538460110D-01
    11  1.0000000000000D-01  8.9058006085809D-01 -4.9648649698805D-01
    12  1.1000000000000D-01  9.6745853114539D-01 -5.2282967142667D-01
    13  1.2000000000000D-01  1.0411087474680D+00 -5.4348765812076D-01
    14  1.3000000000000D-01  1.1113433134861D+00 -5.5834450799593D-01
    15  1.4000000000000D-01  1.1779977633099D+00 -5.6736513254241D-01
    16  1.5000000000000D-01  1.2409307124349D+00 -5.7059331596662D-01
    17  1.6000000000000D-01  1.3000236986165D+00 -5.6814823284609D-01
    18  1.7000000000000D-01  1.3551807262640D+00 -5.6021955565469D-01
    19  1.8000000000000D-01  1.4063275335079D+00 -5.4706126591988D-01
    20  1.9000000000000D-01  1.4534106062396D+00 -5.2898430976852D-01
    21  2.0000000000000D-01  1.4963959680269D+00 -5.0634826264274D-01
    22  2.1000000000000D-01  1.5352677787889D+00 -4.7955218851504D-01
    23  2.2000000000000D-01  1.5700267783725D+00 -4.4902489555938D-01
    24  2.3000000000000D-01  1.6006886136627D+00 -4.1521480259325D-01
    25  2.4000000000000D-01  1.6272820895088D+00 -3.7857963841834D-01
    26  2.5000000000000D-01  1.6498473845453D+00 -3.3957619928773D-01
    27  2.6000000000000D-01  1.6684342728963D+00 -2.9865038803637D-01
    28  2.7000000000000D-01  1.6831003917954D+00 -2.5622775195356D-01
    29  2.8000000000000D-01  1.6939095933361D+00 -2.1270472537992D-01
    30  2.9000000000000D-01  1.7009304159398D+00 -1.6844076749344D-01
    31  3.0000000000000D-01  1.7042347077422D+00 -1.2375156613008D-01
    32  3.1000000000000D-01  1.7038964300268D+00 -7.8903455164487D-02
    33  3.2000000000000D-01  1.6999906641614D+00 -3.4109166436622D-02
    34  3.3000000000000D-01  1.6925928403263D+00  1.0474991996537D-02
    35  3.4000000000000D-01  1.6817782007582D+00  5.4750470772216D-02
    36  3.5000000000000D-01  1.6676215044108D+00  9.8676299456041D-02
    37  3.6000000000000D-01  1.6501969739517D+00  1.4226739765053D-01
    38  3.7000000000000D-01  1.6295784800258D+00  1.8559141593447D-01
    39  3.8000000000000D-01  1.6058399518332D+00  2.2876417830305D-01
    40  3.9000000000000D-01  1.5790559974264D+00  2.7194382910230D-01
    41  4.0000000000000D-01  1.5493027118499D+00  3.1532381671482D-01
    42  4.1000000000000D-01  1.5166586464386D+00  3.5912487282821D-01
    43  4.2000000000000D-01  1.4812059083670D+00  4.0358616942527D-01
    44  4.3000000000000D-01  1.4430313559941D+00  4.4895585516175D-01
    45  4.4000000000000D-01  1.4022278527510D+00  4.9548118811325D-01
    46  4.5000000000000D-01  1.3588955403505D+00  5.4339849262390D-01
    47  4.6000000000000D-01  1.3131430909880D+00  5.9292317392186D-01
    48  4.7000000000000D-01  1.2650888979951D+00  6.4424002512602D-01
    49  4.8000000000000D-01  1.2148621651066D+00  6.9749405719880D-01
    50  4.9000000000000D-01  1.1626038560990D+00  7.5278207335332D-01
    51  5.0000000000000D-01  1.1084674690271D+00  8.1014519556355D-01
    52  5.1000000000000D-01  1.0526196025822D+00  8.6956253239824D-01
    53  5.2000000000000D-01  9.9524028615265D-01  9.3094615476748D-01
    54  5.3000000000000D-01  9.3652304990896D-01  9.9413751977824D-01
    55  5.4000000000000D-01  8.7667471655783D-01  1.0589054532830D+00
    56  5.5000000000000D-01  8.1591490222662D-01  1.1249457694067D+00
    57  5.6000000000000D-01  7.5447522009528D-01  1.1918825711468D+00
    58  5.7000000000000D-01  6.9259818680572D-01  1.2592712405611D+00
    59  5.8000000000000D-01  6.3053583817187D-01  1.3266030910426D+00
    60  5.9000000000000D-01  5.6854806718753D-01  1.3933116182789D+00
    61  6.0000000000000D-01  5.0690070361728D-01  1.4587802516310D+00
    62  6.1000000000000D-01  4.4586336045583D-01  1.5223514743966D+00
    63  6.2000000000000D-01  3.8570707808088D-01  1.5833371507016D+00
    64  6.3000000000000D-01  3.2670180194640D-01  1.6410298689027D+00
    65  6.4000000000000D-01  2.6911373397934D-01  1.6947150874116D+00
    66  6.5000000000000D-01  2.1320260143234D-01  1.7436838488884D+00
    67  6.6000000000000D-01  1.5921888967197D-01  1.7872458135392D+00
    68  6.7000000000000D-01  1.0740108720222D-01  1.8247423520277D+00
    69  6.8000000000000D-01  5.7972992095646D-02  1.8555594335031D+00
    70  6.9000000000000D-01  1.1141128885942D-02  1.8791400446801D+00
    71  7.0000000000000D-01 -3.2907676137199D-02  1.8949958818122D+00
    72  7.1000000000000D-01 -7.4008515358381D-02  1.9027180685404D+00
    73  7.2000000000000D-01 -1.1202037316986D-01  1.9019866691287D+00
    74  7.3000000000000D-01 -1.4682781329575D-01  1.8925787878383D+00
    75  7.4000000000000D-01 -1.7834234594191D-01  1.8743750710116D+00
    76  7.5000000000000D-01 -2.0650344609081D-01  1.8473644582827D+00
    77  7.6000000000000D-01 -2.3127920034790D-01  1.8116470624670D+00
    78  7.7000000000000D-01 -2.5266656637783D-01  1.7674350937745D+00
    79  7.8000000000000D-01 -2.7069123596161D-01  1.7150517820338D+00
    80  7.9000000000000D-01 -2.8540709994018D-01  1.6549282899469D+00
    81  8.0000000000000D-01 -2.9689532065210D-01  1.5875986502786D+00
    82  8.1000000000000D-01 -3.0526302476400D-01  1.5136927994457D+00
    83  8.2000000000000D-01 -3.1064163648833D-01  1.4339278184138D+00
    84  8.3000000000000D-01 -3.1318487794161D-01  1.3490975283614D+00
    85  8.4000000000000D-01 -3.1306646967810D-01  1.2600606224513D+00
    86  8.5000000000000D-01 -3.1047757011005D-01  1.1677275455649D+00
    87  8.6000000000000D-01 -3.0562399747858D-01  1.0730463603521D+00
    88  8.7000000000000D-01 -2.9872328216568D-01  9.7698785987136D-01
    89  8.8000000000000D-01 -2.9000160034878D-01  8.8053020394692D-01
    90  8.9000000000000D-01 -2.7969064222726D-01  7.8464336779428D-01
    91  9.0000000000000D-01 -2.6802446924338D-01  6.9027369717796D-01
    92  9.1000000000000D-01 -2.5523641484984D-01  5.9832886421709D-01
    93  9.2000000000000D-01 -2.4155608243513D-01  5.0966351190841D-01
    94  9.3000000000000D-01 -2.2720649201799D-01  4.2506586357185D-01
    95  9.4000000000000D-01 -2.1240142430080D-01  3.4524555594510D-01
    96  9.5000000000000D-01 -1.9734300668287D-01  2.7082293187412D-01
    97  9.6000000000000D-01 -1.8221958096893D-01  2.0232000096974D-01
    98  9.7000000000000D-01 -1.6720388675626D-01  1.4015324417568D-01
    99  9.8000000000000D-01 -1.5245158827798D-01  8.4628403335574D-02
   100  9.9000000000000D-01 -1.3810016540276D-01  3.5937357214895D-02
   101  1.0000000000000D+00 -1.2426818220062D-01 -5.8428552874792D-03
   102  1.0100000000000D+00 -1.1105493887025D-01 -4.0748846445576D-02
   103  1.0200000000000D+00 -9.8540505052149D-02 -6.8927550470661D-02
   104  1.0300000000000D+00 -8.6786124854339D-02 -9.0630821418176D-02
   105  1.0400000000000D+00 -7.5834976169350D-02 -1.0620806885679D-01
   106  1.0500000000000D+00 -6.5713260228244D-02 -1.1609707862101D-01
   107  1.0600000000000D+00 -5.6431589813457D-02 -1.2081320749390D-01
   108  1.0700000000000D+00 -4.7986639032146D-02 -1.2093717103876D-01
   109  1.0800000000000D+00 -4.0363011965173D-02 -1.1710167445832D-01
   110  1.0900000000000D+00 -3.3535282918907D-02 -1.0997716137060D-01
   111  1.1000000000000D+00 -2.7470157798373D-02 -1.0025697282210D-01
   112  1.1100000000000D+00 -2.2128702949135D-02 -8.8642225811316D-02
   113  1.1200000000000D+00 -1.7468586789366D-02 -7.5826725792173D-02
   114  1.1300000000000D+00 -1.3446279149731D-02 -6.2482229157638D-02
   115  1.1400000000000D+00 -1.0019153732185D-02 -4.9244368398650D-02
   116  1.1500000000000D+00 -7.1474409243201D-03 -3.6699541690320D-02
   117  1.1600000000000D+00 -4.7959811985576D-03 -2.5373051326770D-02
   118  1.1700000000000D+00 -2.9368670610925D-03 -1.5723983378998D-02
   119  1.1800000000000D+00 -1.5411131663281D-03 -8.0938712945378D-03
   120  1.1900000000000D+00 -6.0779364879462D-04 -2.8243131107014D-03
   121  1.2000000000000D+00 -1.5452064222713D-04 -1.9499747639730D-04
   122  1.2100000000000D+00 -1.5827808498212D-05  3.4664044635395D-04
   123  1.2200000000000D+00 -4.5156224981680D-09 -5.9496394423346D-07
   124  1.2300000000000D+00 -1.4646869127852D-06 -5.5655471438881D-05
   125  1.2400000000000D+00  1.0555999178328D-08  1.4058128822504D-05
   126  1.2500000000000D+00  2.2121863580589D-08 -1.2225848475561D-07
   127  1.2600000000000D+00  1.1876017413327D-07 -6.5633886973187D-07
   128  1.2700000000000D+00  0.0000000000000D+00  0.0000000000000D+00
   129  1.2800000000000D+00  0.0000000000000D+00  0.0000000000000D+00
   130  1.2900000000000D+00  0.0000000000000D+00  0.0000000000000D+00
   131  1.3000000000000D+00  0.0000000000000D+00  0.0000000000000D+00
   132  1.3100000000000D+00  0.0000000000000D+00  0.0000000000000D+00
   133  1.3200000000000D+00  0.0000000000000D+00  0.0000000000000D+00
   134  1.3300000000000D+00  0.0000000000000D+00  0.0000000000000D+00
   135  1.3400000000000D+00  0.0000000000000D+00  0.0000000000000D+00
   136  1.3500000000000D+00  0.0000000000000D+00  0.0000000000000D+00
   137  1.3600000000000D+00  0.0000000000000D+00  0.0000000000000D+00
   138  1.3700000000000D+00  0.0000000000000D+00  0.0000000000000D+00
   139  1.3800000000000D+00  0.0000000000000D+00  0.0000000000000D+00
   140  1.3900000000000D+00  0.0000000000000D+00  0.0000000000000D+00
   141  1.4000000000000D+00  0.0000000000000D+00  0.0000000000000D+00
   142  1.4100000000000D+00  0.0000000000000D+00  0.0000000000000D+00
   143  1.4200000000000D+00  0.0000000000000D+00  0.0000000000000D+00
   144  1.4300000000000D+00  0.0000000000000D+00  0.0000000000000D+00
   145  1.4400000000000D+00  0.0000000000000D+00  0.0000000000000D+00
   146  1.4500000000000D+00  0.0000000000000D+00  0.0000000000000D+00
   147  1.4600000000000D+00  0.0000000000000D+00  0.0000000000000D+00
   148  1.4700000000000D+00  0.0000000000000D+00  0.0000000000000D+00
   149  1.4800000000000D+00  0.0000000000000D+00  0.0000000000000D+00
   150  1.4900000000000D+00  0.0000000000000D+00  0.0000000000000D+00
   151  1.5000000000000D+00  0.0000000000000D+00  0.0000000000000D+00
   152  1.5100000000000D+00  0.0000000000000D+00  0.0000000000000D+00
   153  1.5200000000000D+00  0.0000000000000D+00  0.0000000000000D+00
   154  1.5300000000000D+00  0.0000000000000D+00  0.0000000000000D+00
   155  1.5400000000000D+00  0.0000000000000D+00  0.0000000000000D+00
   156  1.5500000000000D+00  0.0000000000000D+00  0.0000000000000D+00
   157  1.5600000000000D+00  0.0000000000000D+00  0.0000000000000D+00
   158  1.5700000000000D+00  0.0000000000000D+00  0.0000000000000D+00
   159  1.5800000000000D+00  0.0000000000000D+00  0.0000000000000D+00
   160  1.5900000000000D+00  0.0000000000000D+00  0.0000000000000D+00
   161  1.6000000000000D+00  0.0000000000000D+00  0.0000000000000D+00
   162  1.6100000000000D+00  0.0000000000000D+00  0.0000000000000D+00
   163  1.6200000000000D+00  0.0000000000000D+00  0.0000000000000D+00
   164  1.6300000000000D+00  0.0000000000000D+00  0.0000000000000D+00
   165  1.6400000000000D+00  0.0000000000000D+00  0.0000000000000D+00
   166  1.6500000000000D+00  0.0000000000000D+00  0.0000000000000D+00
   167  1.6600000000000D+00  0.0000000000000D+00  0.0000000000000D+00
   168  1.6700000000000D+00  0.0000000000000D+00  0.0000000000000D+00
   169  1.6800000000000D+00  0.0000000000000D+00  0.0000000000000D+00
   170  1.6900000000000D+00  0.0000000000000D+00  0.0000000000000D+00
   171  1.7000000000000D+00  0.0000000000000D+00  0.0000000000000D+00
   172  1.7100000000000D+00  0.0000000000000D+00  0.0000000000000D+00
   173  1.7200000000000D+00  0.0000000000000D+00  0.0000000000000D+00
   174  1.7300000000000D+00  0.0000000000000D+00  0.0000000000000D+00
   175  1.7400000000000D+00  0.0000000000000D+00  0.0000000000000D+00
   176  1.7500000000000D+00  0.0000000000000D+00  0.0000000000000D+00
   177  1.7600000000000D+00  0.0000000000000D+00  0.0000000000000D+00
   178  1.7700000000000D+00  0.0000000000000D+00  0.0000000000000D+00
   179  1.7800000000000D+00  0.0000000000000D+00  0.0000000000000D+00
   180  1.7900000000000D+00  0.0000000000000D+00  0.0000000000000D+00
   181  1.8000000000000D+00  0.0000000000000D+00  0.0000000000000D+00
   182  1.8100000000000D+00  0.0000000000000D+00  0.0000000000000D+00
   183  1.8200000000000D+00  0.0000000000000D+00  0.0000000000000D+00
   184  1.8300000000000D+00  0.0000000000000D+00  0.0000000000000D+00
   185  1.8400000000000D+00  0.0000000000000D+00  0.0000000000000D+00
   186  1.8500000000000D+00  0.0000000000000D+00  0.0000000000000D+00
   187  1.8600000000000D+00  0.0000000000000D+00  0.0000000000000D+00
   188  1.8700000000000D+00  0.0000000000000D+00  0.0000000000000D+00
   189  1.8800000000000D+00  0.0000000000000D+00  0.0000000000000D+00
   190  1.8900000000000D+00  0.0000000000000D+00  0.0000000000000D+00
   191  1.9000000000000D+00  0.0000000000000D+00  0.0000000000000D+00
   192  1.9100000000000D+00  0.0000000000000D+00  0.0000000000000D+00
   193  1.9200000000000D+00  0.0000000000000D+00  0.0000000000000D+00
   194  1.9300000000000D+00  0.0000000000000D+00  0.0000000000000D+00
   195  1.9400000000000D+00  0.0000000000000D+00  0.0000000000000D+00
   196  1.9500000000000D+00  0.0000000000000D+00  0.0000000000000D+00
   197  1.9600000000000D+00  0.0000000000000D+00  0.0000000000000D+00
   198  1.9700000000000D+00  0.0000000000000D+00  0.0000000000000D+00
   199  1.9800000000000D+00  0.0000000000000D+00  0.0000000000000D+00
   200  1.9900000000000D+00  0.0000000000000D+00  0.0000000000000D+00
   201  2.0000000000000D+00  0.0000000000000D+00  0.0000000000000D+00
   202  2.0100000000000D+00  0.0000000000000D+00  0.0000000000000D+00
   203  2.0200000000000D+00  0.0000000000000D+00  0.0000000000000D+00
   204  2.0300000000000D+00  0.0000000000000D+00  0.0000000000000D+00
   205  2.0400000000000D+00  0.0000000000000D+00  0.0000000000000D+00
   206  2.0500000000000D+00  0.0000000000000D+00  0.0000000000000D+00
   207  2.0600000000000D+00  0.0000000000000D+00  0.0000000000000D+00
   208  2.0700000000000D+00  0.0000000000000D+00  0.0000000000000D+00
   209  2.0800000000000D+00  0.0000000000000D+00  0.0000000000000D+00
   210  2.0900000000000D+00  0.0000000000000D+00  0.0000000000000D+00
   211  2.1000000000000D+00  0.0000000000000D+00  0.0000000000000D+00
   212  2.1100000000000D+00  0.0000000000000D+00  0.0000000000000D+00
   213  2.1200000000000D+00  0.0000000000000D+00  0.0000000000000D+00
   214  2.1300000000000D+00  0.0000000000000D+00  0.0000000000000D+00
   215  2.1400000000000D+00  0.0000000000000D+00  0.0000000000000D+00
   216  2.1500000000000D+00  0.0000000000000D+00  0.0000000000000D+00
   217  2.1600000000000D+00  0.0000000000000D+00  0.0000000000000D+00
   218  2.1700000000000D+00  0.0000000000000D+00  0.0000000000000D+00
   219  2.1800000000000D+00  0.0000000000000D+00  0.0000000000000D+00
   220  2.1900000000000D+00  0.0000000000000D+00  0.0000000000000D+00
   221  2.2000000000000D+00  0.0000000000000D+00  0.0000000000000D+00
   222  2.2100000000000D+00  0.0000000000000D+00  0.0000000000000D+00
   223  2.2200000000000D+00  0.0000000000000D+00  0.0000000000000D+00
   224  2.2300000000000D+00  0.0000000000000D+00  0.0000000000000D+00
   225  2.2400000000000D+00  0.0000000000000D+00  0.0000000000000D+00
   226  2.2500000000000D+00  0.0000000000000D+00  0.0000000000000D+00
   227  2.2600000000000D+00  0.0000000000000D+00  0.0000000000000D+00
   228  2.2700000000000D+00  0.0000000000000D+00  0.0000000000000D+00
   229  2.2800000000000D+00  0.0000000000000D+00  0.0000000000000D+00
   230  2.2900000000000D+00  0.0000000000000D+00  0.0000000000000D+00
   231  2.3000000000000D+00  0.0000000000000D+00  0.0000000000000D+00
   232  2.3100000000000D+00  0.0000000000000D+00  0.0000000000000D+00
   233  2.3200000000000D+00  0.0000000000000D+00  0.0000000000000D+00
   234  2.3300000000000D+00  0.0000000000000D+00  0.0000000000000D+00
   235  2.3400000000000D+00  0.0000000000000D+00  0.0000000000000D+00
   236  2.3500000000000D+00  0.0000000000000D+00  0.0000000000000D+00
   237  2.3600000000000D+00  0.0000000000000D+00  0.0000000000000D+00
   238  2.3700000000000D+00  0.0000000000000D+00  0.0000000000000D+00
   239  2.3800000000000D+00  0.0000000000000D+00  0.0000000000000D+00
   240  2.3900000000000D+00  0.0000000000000D+00  0.0000000000000D+00
   241  2.4000000000000D+00  0.0000000000000D+00  0.0000000000000D+00
   242  2.4100000000000D+00  0.0000000000000D+00  0.0000000000000D+00
   243  2.4200000000000D+00  0.0000000000000D+00  0.0000000000000D+00
   244  2.4300000000000D+00  0.0000000000000D+00  0.0000000000000D+00
   245  2.4400000000000D+00  0.0000000000000D+00  0.0000000000000D+00
   246  2.4500000000000D+00  0.0000000000000D+00  0.0000000000000D+00
   247  2.4600000000000D+00  0.0000000000000D+00  0.0000000000000D+00
   248  2.4700000000000D+00  0.0000000000000D+00  0.0000000000000D+00
   249  2.4800000000000D+00  0.0000000000000D+00  0.0000000000000D+00
   250  2.4900000000000D+00  0.0000000000000D+00  0.0000000000000D+00
   251  2.5000000000000D+00  0.0000000000000D+00  0.0000000000000D+00
   252  2.5100000000000D+00  0.0000000000000D+00  0.0000000000000D+00
   253  2.5200000000000D+00  0.0000000000000D+00  0.0000000000000D+00
   254  2.5300000000000D+00  0.0000000000000D+00  0.0000000000000D+00
   255  2.5400000000000D+00  0.0000000000000D+00  0.0000000000000D+00
   256  2.5500000000000D+00  0.0000000000000D+00  0.0000000000000D+00
   257  2.5600000000000D+00  0.0000000000000D+00  0.0000000000000D+00
   258  2.5700000000000D+00  0.0000000000000D+00  0.0000000000000D+00
   259  2.5800000000000D+00  0.0000000000000D+00  0.0000000000000D+00
   260  2.5900000000000D+00  0.0000000000000D+00  0.0000000000000D+00
   261  2.6000000000000D+00  0.0000000000000D+00  0.0000000000000D+00
   262  2.6100000000000D+00  0.0000000000000D+00  0.0000000000000D+00
   263  2.6200000000000D+00  0.0000000000000D+00  0.0000000000000D+00
   264  2.6300000000000D+00  0.0000000000000D+00  0.0000000000000D+00
   265  2.6400000000000D+00  0.0000000000000D+00  0.0000000000000D+00
   266  2.6500000000000D+00  0.0000000000000D+00  0.0000000000000D+00
   267  2.6600000000000D+00  0.0000000000000D+00  0.0000000000000D+00
   268  2.6700000000000D+00  0.0000000000000D+00  0.0000000000000D+00
   269  2.6800000000000D+00  0.0000000000000D+00  0.0000000000000D+00
   270  2.6900000000000D+00  0.0000000000000D+00  0.0000000000000D+00
   271  2.7000000000000D+00  0.0000000000000D+00  0.0000000000000D+00
   272  2.7100000000000D+00  0.0000000000000D+00  0.0000000000000D+00
   273  2.7200000000000D+00  0.0000000000000D+00  0.0000000000000D+00
   274  2.7300000000000D+00  0.0000000000000D+00  0.0000000000000D+00
   275  2.7400000000000D+00  0.0000000000000D+00  0.0000000000000D+00
   276  2.7500000000000D+00  0.0000000000000D+00  0.0000000000000D+00
   277  2.7600000000000D+00  0.0000000000000D+00  0.0000000000000D+00
   278  2.7700000000000D+00  0.0000000000000D+00  0.0000000000000D+00
   279  2.7800000000000D+00  0.0000000000000D+00  0.0000000000000D+00
   280  2.7900000000000D+00  0.0000000000000D+00  0.0000000000000D+00
   281  2.8000000000000D+00  0.0000000000000D+00  0.0000000000000D+00
   282  2.8100000000000D+00  0.0000000000000D+00  0.0000000000000D+00
   283  2.8200000000000D+00  0.0000000000000D+00  0.0000000000000D+00
   284  2.8300000000000D+00  0.0000000000000D+00  0.0000000000000D+00
   285  2.8400000000000D+00  0.0000000000000D+00  0.0000000000000D+00
   286  2.8500000000000D+00  0.0000000000000D+00  0.0000000000000D+00
   287  2.8600000000000D+00  0.0000000000000D+00  0.0000000000000D+00
   288  2.8700000000000D+00  0.0000000000000D+00  0.0000000000000D+00
   289  2.8800000000000D+00  0.0000000000000D+00  0.0000000000000D+00
   290  2.8900000000000D+00  0.0000000000000D+00  0.0000000000000D+00
   291  2.9000000000000D+00  0.0000000000000D+00  0.0000000000000D+00
   292  2.9100000000000D+00  0.0000000000000D+00  0.0000000000000D+00
   293  2.9200000000000D+00  0.0000000000000D+00  0.0000000000000D+00
   294  2.9300000000000D+00  0.0000000000000D+00  0.0000000000000D+00
   295  2.9400000000000D+00  0.0000000000000D+00  0.0000000000000D+00
   296  2.9500000000000D+00  0.0000000000000D+00  0.0000000000000D+00
   297  2.9600000000000D+00  0.0000000000000D+00  0.0000000000000D+00
   298  2.9700000000000D+00  0.0000000000000D+00  0.0000000000000D+00
   299  2.9800000000000D+00  0.0000000000000D+00  0.0000000000000D+00
   300  2.9900000000000D+00  0.0000000000000D+00  0.0000000000000D+00
   301  3.0000000000000D+00  0.0000000000000D+00  0.0000000000000D+00
   302  3.0100000000000D+00  0.0000000000000D+00  0.0000000000000D+00
   303  3.0200000000000D+00  0.0000000000000D+00  0.0000000000000D+00
   304  3.0300000000000D+00  0.0000000000000D+00  0.0000000000000D+00
   305  3.0400000000000D+00  0.0000000000000D+00  0.0000000000000D+00
   306  3.0500000000000D+00  0.0000000000000D+00  0.0000000000000D+00
   307  3.0600000000000D+00  0.0000000000000D+00  0.0000000000000D+00
   308  3.0700000000000D+00  0.0000000000000D+00  0.0000000000000D+00
   309  3.0800000000000D+00  0.0000000000000D+00  0.0000000000000D+00
   310  3.0900000000000D+00  0.0000000000000D+00  0.0000000000000D+00
   311  3.1000000000000D+00  0.0000000000000D+00  0.0000000000000D+00
   312  3.1100000000000D+00  0.0000000000000D+00  0.0000000000000D+00
   313  3.1200000000000D+00  0.0000000000000D+00  0.0000000000000D+00
   314  3.1300000000000D+00  0.0000000000000D+00  0.0000000000000D+00
   315  3.1400000000000D+00  0.0000000000000D+00  0.0000000000000D+00
   316  3.1500000000000D+00  0.0000000000000D+00  0.0000000000000D+00
   317  3.1600000000000D+00  0.0000000000000D+00  0.0000000000000D+00
   318  3.1700000000000D+00  0.0000000000000D+00  0.0000000000000D+00
   319  3.1800000000000D+00  0.0000000000000D+00  0.0000000000000D+00
   320  3.1900000000000D+00  0.0000000000000D+00  0.0000000000000D+00
   321  3.2000000000000D+00  0.0000000000000D+00  0.0000000000000D+00
   322  3.2100000000000D+00  0.0000000000000D+00  0.0000000000000D+00
   323  3.2200000000000D+00  0.0000000000000D+00  0.0000000000000D+00
   324  3.2300000000000D+00  0.0000000000000D+00  0.0000000000000D+00
   325  3.2400000000000D+00  0.0000000000000D+00  0.0000000000000D+00
   326  3.2500000000000D+00  0.0000000000000D+00  0.0000000000000D+00
   327  3.2600000000000D+00  0.0000000000000D+00  0.0000000000000D+00
   328  3.2700000000000D+00  0.0000000000000D+00  0.0000000000000D+00
   329  3.2800000000000D+00  0.0000000000000D+00  0.0000000000000D+00
   330  3.2900000000000D+00  0.0000000000000D+00  0.0000000000000D+00
   331  3.3000000000000D+00  0.0000000000000D+00  0.0000000000000D+00
   332  3.3100000000000D+00  0.0000000000000D+00  0.0000000000000D+00
   333  3.3200000000000D+00  0.0000000000000D+00  0.0000000000000D+00
   334  3.3300000000000D+00  0.0000000000000D+00  0.0000000000000D+00
   335  3.3400000000000D+00  0.0000000000000D+00  0.0000000000000D+00
   336  3.3500000000000D+00  0.0000000000000D+00  0.0000000000000D+00
   337  3.3600000000000D+00  0.0000000000000D+00  0.0000000000000D+00
   338  3.3700000000000D+00  0.0000000000000D+00  0.0000000000000D+00
   339  3.3800000000000D+00  0.0000000000000D+00  0.0000000000000D+00
   340  3.3900000000000D+00  0.0000000000000D+00  0.0000000000000D+00
   341  3.4000000000000D+00  0.0000000000000D+00  0.0000000000000D+00
   342  3.4100000000000D+00  0.0000000000000D+00  0.0000000000000D+00
   343  3.4200000000000D+00  0.0000000000000D+00  0.0000000000000D+00
   344  3.4300000000000D+00  0.0000000000000D+00  0.0000000000000D+00
   345  3.4400000000000D+00  0.0000000000000D+00  0.0000000000000D+00
   346  3.4500000000000D+00  0.0000000000000D+00  0.0000000000000D+00
   347  3.4600000000000D+00  0.0000000000000D+00  0.0000000000000D+00
   348  3.4700000000000D+00  0.0000000000000D+00  0.0000000000000D+00
   349  3.4800000000000D+00  0.0000000000000D+00  0.0000000000000D+00
   350  3.4900000000000D+00  0.0000000000000D+00  0.0000000000000D+00
   351  3.5000000000000D+00  0.0000000000000D+00  0.0000000000000D+00
   352  3.5100000000000D+00  0.0000000000000D+00  0.0000000000000D+00
   353  3.5200000000000D+00  0.0000000000000D+00  0.0000000000000D+00
   354  3.5300000000000D+00  0.0000000000000D+00  0.0000000000000D+00
   355  3.5400000000000D+00  0.0000000000000D+00  0.0000000000000D+00
   356  3.5500000000000D+00  0.0000000000000D+00  0.0000000000000D+00
   357  3.5600000000000D+00  0.0000000000000D+00  0.0000000000000D+00
   358  3.5700000000000D+00  0.0000000000000D+00  0.0000000000000D+00
   359  3.5800000000000D+00  0.0000000000000D+00  0.0000000000000D+00
   360  3.5900000000000D+00  0.0000000000000D+00  0.0000000000000D+00
   361  3.6000000000000D+00  0.0000000000000D+00  0.0000000000000D+00
   362  3.6100000000000D+00  0.0000000000000D+00  0.0000000000000D+00
   363  3.6200000000000D+00  0.0000000000000D+00  0.0000000000000D+00
   364  3.6300000000000D+00  0.0000000000000D+00  0.0000000000000D+00
   365  3.6400000000000D+00  0.0000000000000D+00  0.0000000000000D+00
   366  3.6500000000000D+00  0.0000000000000D+00  0.0000000000000D+00
   367  3.6600000000000D+00  0.0000000000000D+00  0.0000000000000D+00
   368  3.6700000000000D+00  0.0000000000000D+00  0.0000000000000D+00
   369  3.6800000000000D+00  0.0000000000000D+00  0.0000000000000D+00
   370  3.6900000000000D+00  0.0000000000000D+00  0.0000000000000D+00
   371  3.7000000000000D+00  0.0000000000000D+00  0.0000000000000D+00
   372  3.7100000000000D+00  0.0000000000000D+00  0.0000000000000D+00
   373  3.7200000000000D+00  0.0000000000000D+00  0.0000000000000D+00
   374  3.7300000000000D+00  0.0000000000000D+00  0.0000000000000D+00
   375  3.7400000000000D+00  0.0000000000000D+00  0.0000000000000D+00
   376  3.7500000000000D+00  0.0000000000000D+00  0.0000000000000D+00
   377  3.7600000000000D+00  0.0000000000000D+00  0.0000000000000D+00
   378  3.7700000000000D+00  0.0000000000000D+00  0.0000000000000D+00
   379  3.7800000000000D+00  0.0000000000000D+00  0.0000000000000D+00
   380  3.7900000000000D+00  0.0000000000000D+00  0.0000000000000D+00
   381  3.8000000000000D+00  0.0000000000000D+00  0.0000000000000D+00
   382  3.8100000000000D+00  0.0000000000000D+00  0.0000000000000D+00
   383  3.8200000000000D+00  0.0000000000000D+00  0.0000000000000D+00
   384  3.8300000000000D+00  0.0000000000000D+00  0.0000000000000D+00
   385  3.8400000000000D+00  0.0000000000000D+00  0.0000000000000D+00
   386  3.8500000000000D+00  0.0000000000000D+00  0.0000000000000D+00
   387  3.8600000000000D+00  0.0000000000000D+00  0.0000000000000D+00
   388  3.8700000000000D+00  0.0000000000000D+00  0.0000000000000D+00
   389  3.8800000000000D+00  0.0000000000000D+00  0.0000000000000D+00
   390  3.8900000000000D+00  0.0000000000000D+00  0.0000000000000D+00
   391  3.9000000000000D+00  0.0000000000000D+00  0.0000000000000D+00
   392  3.9100000000000D+00  0.0000000000000D+00  0.0000000000000D+00
   393  3.9200000000000D+00  0.0000000000000D+00  0.0000000000000D+00
   394  3.9300000000000D+00  0.0000000000000D+00  0.0000000000000D+00
   395  3.9400000000000D+00  0.0000000000000D+00  0.0000000000000D+00
   396  3.9500000000000D+00  0.0000000000000D+00  0.0000000000000D+00
   397  3.9600000000000D+00  0.0000000000000D+00  0.0000000000000D+00
   398  3.9700000000000D+00  0.0000000000000D+00  0.0000000000000D+00
   399  3.9800000000000D+00  0.0000000000000D+00  0.0000000000000D+00
   400  3.9900000000000D+00  0.0000000000000D+00  0.0000000000000D+00
   401  4.0000000000000D+00  0.0000000000000D+00  0.0000000000000D+00
   402  4.0100000000000D+00  0.0000000000000D+00  0.0000000000000D+00
   403  4.0200000000000D+00  0.0000000000000D+00  0.0000000000000D+00
   404  4.0300000000000D+00  0.0000000000000D+00  0.0000000000000D+00
   405  4.0400000000000D+00  0.0000000000000D+00  0.0000000000000D+00
   406  4.0500000000000D+00  0.0000000000000D+00  0.0000000000000D+00
   407  4.0600000000000D+00  0.0000000000000D+00  0.0000000000000D+00
   408  4.0700000000000D+00  0.0000000000000D+00  0.0000000000000D+00
   409  4.0800000000000D+00  0.0000000000000D+00  0.0000000000000D+00
   410  4.0900000000000D+00  0.0000000000000D+00  0.0000000000000D+00
   411  4.1000000000000D+00  0.0000000000000D+00  0.0000000000000D+00
   412  4.1100000000000D+00  0.0000000000000D+00  0.0000000000000D+00
   413  4.1200000000000D+00  0.0000000000000D+00  0.0000000000000D+00
   414  4.1300000000000D+00  0.0000000000000D+00  0.0000000000000D+00
   415  4.1400000000000D+00  0.0000000000000D+00  0.0000000000000D+00
   416  4.1500000000000D+00  0.0000000000000D+00  0.0000000000000D+00
   417  4.1600000000000D+00  0.0000000000000D+00  0.0000000000000D+00
   418  4.1700000000000D+00  0.0000000000000D+00  0.0000000000000D+00
   419  4.1800000000000D+00  0.0000000000000D+00  0.0000000000000D+00
   420  4.1900000000000D+00  0.0000000000000D+00  0.0000000000000D+00
   421  4.2000000000000D+00  0.0000000000000D+00  0.0000000000000D+00
   422  4.2100000000000D+00  0.0000000000000D+00  0.0000000000000D+00
   423  4.2200000000000D+00  0.0000000000000D+00  0.0000000000000D+00