Sr    ONCVPSP-3.3.0  r_core=   1.51547   1.31335   1.51547
     38.0000     10.0000      220117    zatom,zion,pspd
     8      11   2     4   600     0    pspcod,pspxc,lmax,lloc,mmax,r2well
  5.99000000  0.00000000  0.00000000    rchrg fchrg qchrg
     2     2     2     0     0    nproj
     1     1           extension_switch
   0                         9.8693882232746D+00  8.9510976383824D-01
     1  0.0000000000000D+00  1.4920070734448D-10 -7.5376596631038D-10
     2  1.0000000000000D-02  4.0592326544336D-02 -1.4462874704166D-02
     3  2.0000000000000D-02  8.1176520390324D-02 -2.8971966450541D-02
     4  3.0000000000000D-02  1.2174414686477D-01 -4.3572336164749D-02
     5  4.0000000000000D-02  1.6228617081095D-01 -5.8306747874271D-02
     6  5.0000000000000D-02  2.0279266497373D-01 -7.3214558402462D-02
     7  6.0000000000000D-02  2.4325252863002D-01 -8.8330652292178D-02
     8  7.0000000000000D-02  2.8365321970234D-01 -1.0368443613938D-01
     9  8.0000000000000D-02  3.2398050344432D-01 -1.1929890576331D-01
    10  9.0000000000000D-02  3.6421822060368D-01 -1.3518979871553D-01
    11  1.0000000000000D-01  4.0434807775307D-01 -1.5136484354675D-01
    12  1.1000000000000D-01  4.4434946223464D-01 -1.6782311602160D-01
    13  1.2000000000000D-01  4.8419928389313D-01 -1.8455451111281D-01
    14  1.3000000000000D-01  5.2387184547770D-01 -2.0153933813417D-01
    15  1.4000000000000D-01  5.6333874327817D-01 -2.1874804480615D-01
    16  1.5000000000000D-01  6.0256879923052D-01 -2.3614107440644D-01
    17  1.6000000000000D-01  6.4152802538269D-01 -2.5366885846343D-01
    18  1.7000000000000D-01  6.8017962126019D-01 -2.7127194572307D-01
    19  1.8000000000000D-01  7.1848400431406D-01 -2.8888126638172D-01
    20  1.9000000000000D-01  7.5639887327712D-01 -3.0641852885095D-01
    21  2.0000000000000D-01  7.9387930390100D-01 -3.2379674462740D-01
    22  2.1000000000000D-01  8.3087787620155D-01 -3.4092087520289D-01
    23  2.2000000000000D-01  8.6734483200627D-01 -3.5768859338840D-01
    24  2.3000000000000D-01  9.0322826127972D-01 -3.7399114995969D-01
    25  2.4000000000000D-01  9.3847431540426D-01 -3.8971433518283D-01
    26  2.5000000000000D-01  9.7302744531734D-01 -4.0473952355970D-01
    27  2.6000000000000D-01  1.0068306621565D+00 -4.1894478906597D-01
    28  2.7000000000000D-01  1.0398258178416D+00 -4.3220607724716D-01
    29  2.8000000000000D-01  1.0719539028330D+00 -4.4439841980874D-01
    30  2.9000000000000D-01  1.1031553581479D+00 -4.5539717678966D-01
    31  3.0000000000000D-01  1.1333703985926D+00 -4.6507929105531D-01
    32  3.1000000000000D-01  1.1625393440845D+00 -4.7332453969041D-01
    33  3.2000000000000D-01  1.1906029558853D+00 -4.8001676691593D-01
    34  3.3000000000000D-01  1.2175027745558D+00 -4.8504508339907D-01
    35  3.4000000000000D-01  1.2431814564673D+00 -4.8830501726683D-01
    36  3.5000000000000D-01  1.2675831057655D+00 -4.8969960276878D-01
    37  3.6000000000000D-01  1.2906535987783D+00 -4.8914039335286D-01
    38  3.7000000000000D-01  1.3123408979909D+00 -4.8654838691273D-01
    39  3.8000000000000D-01  1.3325953528739D+00 -4.8185485212062D-01
    40  3.9000000000000D-01  1.3513699850424D+00 -4.7500204606302D-01
    41  4.0000000000000D-01  1.3686207554422D+00 -4.6594381483057D-01
    42  4.1000000000000D-01  1.3843068115078D+00 -4.5464607025987D-01
    43  4.2000000000000D-01  1.3983907124939D+00 -4.4108713766287D-01
    44  4.3000000000000D-01  1.4108386314722D+00 -4.2525797108818D-01
    45  4.4000000000000D-01  1.4216205327741D+00 -4.0716223441526D-01
    46  4.5000000000000D-01  1.4307103239686D+00 -3.8681624836313D-01
    47  4.6000000000000D-01  1.4380859817723D+00 -3.6424880527690D-01
    48  4.7000000000000D-01  1.4437296516030D+00 -3.3950085531297D-01
    49  4.8000000000000D-01  1.4476277207938D+00 -3.1262506935443D-01
    50  4.9000000000000D-01  1.4497708657877D+00 -2.8368528562686D-01
    51  5.0000000000000D-01  1.4501540739248D+00 -2.5275584853031D-01
    52  5.1000000000000D-01  1.4487766407059D+00 -2.1992084963277D-01
    53  5.2000000000000D-01  1.4456421436799D+00 -1.8527328206429D-01
    54  5.3000000000000D-01  1.4407583943302D+00 -1.4891412068994D-01
    55  5.4000000000000D-01  1.4341373695530D+00 -1.1095134140732D-01
    56  5.5000000000000D-01  1.4257951244982D+00 -7.1498893697251D-02
    57  5.6000000000000D-01  1.4157516886984D+00 -3.0675641138971D-02
    58  5.7000000000000D-01  1.4040309475323D+00  1.1395715021930D-02
    59  5.8000000000000D-01  1.3906605111537D+00  5.4589714002164D-02
    60  5.9000000000000D-01  1.3756715730743D+00  9.8779200113297D-02
    61  6.0000000000000D-01  1.3590987606005D+00  1.4383635897855D-01
    62  6.1000000000000D-01  1.3409799793124D+00  1.8963371091085D-01
    63  6.2000000000000D-01  1.3213562537168D+00  2.3604504772938D-01
    64  6.3000000000000D-01  1.3002715661234D+00  2.8294630020498D-01
    65  6.4000000000000D-01  1.2777726956741D+00  3.3021632442566D-01
    66  6.5000000000000D-01  1.2539090593080D+00  3.7773759665100D-01
    67  6.6000000000000D-01  1.2287325562687D+00  4.2539680767357D-01
    68  6.7000000000000D-01  1.2022974175610D+00  4.7308534929054D-01
    69  6.8000000000000D-01  1.1746600615408D+00  5.2069968719350D-01
    70  6.9000000000000D-01  1.1458789565820D+00  5.6814161640177D-01
    71  7.0000000000000D-01  1.1160144915110D+00  6.1531839724114D-01
    72  7.1000000000000D-01  1.0851288542321D+00  6.6214277180515D-01
    73  7.2000000000000D-01  1.0532859187000D+00  7.0853286278018D-01
    74  7.3000000000000D-01  1.0205511401210D+00  7.5441195847032D-01
    75  7.4000000000000D-01  9.8699145799750D-01  7.9970818975758D-01
    76  7.5000000000000D-01  9.5267520636769D-01  8.4435410658122D-01
    77  7.6000000000000D-01  9.1767203034586D-01  8.8828616327222D-01
    78  7.7000000000000D-01  8.8205280783309D-01  9.3144412371272D-01
    79  7.8000000000000D-01  8.4588957505845D-01  9.7377039877896D-01
    80  7.9000000000000D-01  8.0925545442152D-01  1.0152093298526D+00
    81  8.0000000000000D-01  7.7222458294805D-01  1.0557064333130D+00
    82  8.1000000000000D-01  7.3487203954161D-01  1.0952076218479D+00
    83  8.2000000000000D-01  6.9727376911962D-01  1.1336584191154D+00
    84  8.3000000000000D-01  6.5950650166331D-01  1.1710031847453D+00
    85  8.4000000000000D-01  6.2164766419116D-01  1.2071843668724D+00
    86  8.5000000000000D-01  5.8377528368382D-01  1.2421417993377D+00
    87  8.6000000000000D-01  5.4596787904768D-01  1.2758120603760D+00
    88  8.7000000000000D-01  5.0830434030291D-01  1.3081279090259D+00
    89  8.8000000000000D-01  4.7086379332076D-01  1.3390178146549D+00
    90  8.9000000000000D-01  4.3372544861143D-01  1.3684055938969D+00
    91  9.0000000000000D-01  3.9696843287834D-01  1.3962101679605D+00
    92  9.1000000000000D-01  3.6067160230252D-01  1.4223454516970D+00
    93  9.2000000000000D-01  3.2491333680155D-01  1.4467203840406D+00
    94  9.3000000000000D-01  2.8977131481562D-01  1.4692391074618D+00
    95  9.4000000000000D-01  2.5532226850650D-01  1.4898013019410D+00
    96  9.5000000000000D-01  2.2164171960929D-01  1.5083026766874D+00
    97  9.6000000000000D-01  1.8880369654552D-01  1.5246356204436D+00
    98  9.7000000000000D-01  1.5688043378256D-01  1.5386900087675D+00
    99  9.8000000000000D-01  1.2594205481565D-01  1.5503541641277D+00
   100  9.9000000000000D-01  9.6056240527760D-02  1.5595159621525D+00
   101  1.0000000000000D+00  6.7287885064339D-02  1.5660640748517D+00
   102  1.0100000000000D+00  3.9698741726576D-02  1.5698893391758D+00
   103  1.0200000000000D+00  1.3347061737805D-02  1.5708862369184D+00
   104  1.0300000000000D+00 -1.1712770929060D-02  1.5689544696869D+00
   105  1.0400000000000D+00 -3.5430605191237D-02  1.5640006107043D+00
   106  1.0500000000000D+00 -5.7760885197929D-02  1.5559398131317D+00
   107  1.0600000000000D+00 -7.8663005398082D-02  1.5446975530571D+00
   108  1.0700000000000D+00 -9.8101654160655D-02  1.5302113838074D+00
   109  1.0800000000000D+00 -1.1604714163149D-01  1.5124326770669D+00
   110  1.0900000000000D+00 -1.3247570741967D-01  1.4913283254649D+00
   111  1.1000000000000D+00 -1.4736980365157D-01  1.4668823806141D+00
   112  1.1100000000000D+00 -1.6071834894801D-01  1.4390976003985D+00
   113  1.1200000000000D+00 -1.7251694894593D-01  1.4079968793825D+00
   114  1.1300000000000D+00 -1.8276807910304D-01  1.3736245366118D+00
   115  1.1400000000000D+00 -1.9148122567607D-01  1.3360474356993D+00
   116  1.1500000000000D+00 -1.9867298102205D-01  1.2953559132994D+00
   117  1.1600000000000D+00 -2.0436708965176D-01  1.2516644934775D+00
   118  1.1700000000000D+00 -2.0859444176552D-01  1.2051123670166D+00
   119  1.1800000000000D+00 -2.1139301137279D-01  1.1558636166292D+00
   120  1.1900000000000D+00 -2.1280773656101D-01  1.1041071715442D+00
   121  1.2000000000000D+00 -2.1289033998445D-01  1.0500564776897D+00
   122  1.2100000000000D+00 -2.1169908790286D-01  9.9394887110140D-01
   123  1.2200000000000D+00 -2.0929848691404D-01  9.3604464668273D-01
   124  1.2300000000000D+00 -2.0575891796684D-01  8.7662581695081D-01
   125  1.2400000000000D+00 -2.0115620767550D-01  8.1599455782224D-01
   126  1.2500000000000D+00 -1.9557113763872D-01  7.5447134234408D-01
   127  1.2600000000000D+00 -1.8908889316034D-01  6.9239276723456D-01
   128  1.2700000000000D+00 -1.8179845266343D-01  6.3010907569363D-01
   129  1.2800000000000D+00 -1.7379192270141D-01  5.6798140615443D-01
   130  1.2900000000000D+00 -1.6516380967069D-01  5.0637869434436D-01
   131  1.3000000000000D+00 -1.5601028998309D-01  4.4567466245702D-01
   132  1.3100000000000D+00 -1.4642830283914D-01  3.8624362331663D-01
   133  1.3200000000000D+00 -1.3651475398426D-01  3.2845715499960D-01
   134  1.3300000000000D+00 -1.2636621720553D-01  2.7268472328840D-01
   135  1.3400000000000D+00 -1.1607871777966D-01  2.1929428067234D-01
   136  1.3500000000000D+00 -1.0574760352039D-01  1.6865312784841D-01
   137  1.3600000000000D+00 -9.5466832745266D-02  1.2112412827570D-01
   138  1.3700000000000D+00 -8.5328356247976D-02  7.7062598932144D-02
   139  1.3800000000000D+00 -7.5421517668462D-02  3.6813376356084D-02
   140  1.3900000000000D+00 -6.5832445219202D-02  7.0775099077653D-04
   141  1.4000000000000D+00 -5.6643457063317D-02 -3.0939535835524D-02
   142  1.4100000000000D+00 -4.7932483214947D-02 -5.7833225393235D-02
   143  1.4200000000000D+00 -3.9772510109087D-02 -7.9700368630957D-02
   144  1.4300000000000D+00 -3.2231052387269D-02 -9.6293021123285D-02
   145  1.4400000000000D+00 -2.5369657593283D-02 -1.0739077307627D-01
   146  1.4500000000000D+00 -1.9243447607376D-02 -1.1280309241571D-01
   147  1.4600000000000D+00 -1.3900701899964D-02 -1.1237145170294D-01
   148  1.4700000000000D+00 -9.3854374625578D-03 -1.0581343494395D-01
   149  1.4800000000000D+00 -5.7216096562682D-03 -9.3564248094505D-02
   150  1.4900000000000D+00 -2.9270619351643D-03 -7.6251836629014D-02
   151  1.5000000000000D+00 -1.0905466390436D-03 -4.8408121921478D-02
   152  1.5100000000000D+00 -1.7213604167080D-04 -1.4027718301006D-02
   153  1.5200000000000D+00  9.3405256837308D-05  4.4118425707706D-03
   154  1.5300000000000D+00  3.8382606642063D-05  2.4893213979433D-03
   155  1.5400000000000D+00 -2.5492514517160D-05 -1.1738504938695D-03
   156  1.5500000000000D+00 -7.9847249011347D-06 -3.8487143588374D-04
   157  1.5600000000000D+00  4.9792602146829D-06  1.5822228719980D-04
   158  1.5700000000000D+00  5.3940651471163D-07  1.7314599085385D-05
   159  1.5800000000000D+00 -9.5584723995156D-08  1.7460396184408D-07
   160  1.5900000000000D+00  0.0000000000000D+00  0.0000000000000D+00
   161  1.6000000000000D+00  0.0000000000000D+00  0.0000000000000D+00
   162  1.6100000000000D+00  0.0000000000000D+00  0.0000000000000D+00
   163  1.6200000000000D+00  0.0000000000000D+00  0.0000000000000D+00
   164  1.6300000000000D+00  0.0000000000000D+00  0.0000000000000D+00
   165  1.6400000000000D+00  0.0000000000000D+00  0.0000000000000D+00
   166  1.6500000000000D+00  0.0000000000000D+00  0.0000000000000D+00
   167  1.6600000000000D+00  0.0000000000000D+00  0.0000000000000D+00
   168  1.6700000000000D+00  0.0000000000000D+00  0.0000000000000D+00
   169  1.6800000000000D+00  0.0000000000000D+00  0.0000000000000D+00
   170  1.6900000000000D+00  0.0000000000000D+00  0.0000000000000D+00
   171  1.7000000000000D+00  0.0000000000000D+00  0.0000000000000D+00
   172  1.7100000000000D+00  0.0000000000000D+00  0.0000000000000D+00
   173  1.7200000000000D+00  0.0000000000000D+00  0.0000000000000D+00
   174  1.7300000000000D+00  0.0000000000000D+00  0.0000000000000D+00
   175  1.7400000000000D+00  0.0000000000000D+00  0.0000000000000D+00
   176  1.7500000000000D+00  0.0000000000000D+00  0.0000000000000D+00
   177  1.7600000000000D+00  0.0000000000000D+00  0.0000000000000D+00
   178  1.7700000000000D+00  0.0000000000000D+00  0.0000000000000D+00
   179  1.7800000000000D+00  0.0000000000000D+00  0.0000000000000D+00
   180  1.7900000000000D+00  0.0000000000000D+00  0.0000000000000D+00
   181  1.8000000000000D+00  0.0000000000000D+00  0.0000000000000D+00
   182  1.8100000000000D+00  0.0000000000000D+00  0.0000000000000D+00
   183  1.8200000000000D+00  0.0000000000000D+00  0.0000000000000D+00
   184  1.8300000000000D+00  0.0000000000000D+00  0.0000000000000D+00
   185  1.8400000000000D+00  0.0000000000000D+00  0.0000000000000D+00
   186  1.8500000000000D+00  0.0000000000000D+00  0.0000000000000D+00
   187  1.8600000000000D+00  0.0000000000000D+00  0.0000000000000D+00
   188  1.8700000000000D+00  0.0000000000000D+00  0.0000000000000D+00
   189  1.8800000000000D+00  0.0000000000000D+00  0.0000000000000D+00
   190  1.8900000000000D+00  0.0000000000000D+00  0.0000000000000D+00
   191  1.9000000000000D+00  0.0000000000000D+00  0.0000000000000D+00
   192  1.9100000000000D+00  0.0000000000000D+00  0.0000000000000D+00
   193  1.9200000000000D+00  0.0000000000000D+00  0.0000000000000D+00
   194  1.9300000000000D+00  0.0000000000000D+00  0.0000000000000D+00
   195  1.9400000000000D+00  0.0000000000000D+00  0.0000000000000D+00
   196  1.9500000000000D+00  0.0000000000000D+00  0.0000000000000D+00
   197  1.9600000000000D+00  0.0000000000000D+00  0.0000000000000D+00
   198  1.9700000000000D+00  0.0000000000000D+00  0.0000000000000D+00
   199  1.9800000000000D+00  0.0000000000000D+00  0.0000000000000D+00
   200  1.9900000000000D+00  0.0000000000000D+00  0.0000000000000D+00
   201  2.0000000000000D+00  0.0000000000000D+00  0.0000000000000D+00
   202  2.0100000000000D+00  0.0000000000000D+00  0.0000000000000D+00
   203  2.0200000000000D+00  0.0000000000000D+00  0.0000000000000D+00
   204  2.0300000000000D+00  0.0000000000000D+00  0.0000000000000D+00
   205  2.0400000000000D+00  0.0000000000000D+00  0.0000000000000D+00
   206  2.0500000000000D+00  0.0000000000000D+00  0.0000000000000D+00
   207  2.0600000000000D+00  0.0000000000000D+00  0.0000000000000D+00
   208  2.0700000000000D+00  0.0000000000000D+00  0.0000000000000D+00
   209  2.0800000000000D+00  0.0000000000000D+00  0.0000000000000D+00
   210  2.0900000000000D+00  0.0000000000000D+00  0.0000000000000D+00
   211  2.1000000000000D+00  0.0000000000000D+00  0.0000000000000D+00
   212  2.1100000000000D+00  0.0000000000000D+00  0.0000000000000D+00
   213  2.1200000000000D+00  0.0000000000000D+00  0.0000000000000D+00
   214  2.1300000000000D+00  0.0000000000000D+00  0.0000000000000D+00
   215  2.1400000000000D+00  0.0000000000000D+00  0.0000000000000D+00
   216  2.1500000000000D+00  0.0000000000000D+00  0.0000000000000D+00
   217  2.1600000000000D+00  0.0000000000000D+00  0.0000000000000D+00
   218  2.1700000000000D+00  0.0000000000000D+00  0.0000000000000D+00
   219  2.1800000000000D+00  0.0000000000000D+00  0.0000000000000D+00
   220  2.1900000000000D+00  0.0000000000000D+00  0.0000000000000D+00
   221  2.2000000000000D+00  0.0000000000000D+00  0.0000000000000D+00
   222  2.2100000000000D+00  0.0000000000000D+00  0.0000000000000D+00
   223  2.2200000000000D+00  0.0000000000000D+00  0.0000000000000D+00
   224  2.2300000000000D+00  0.0000000000000D+00  0.0000000000000D+00
   225  2.2400000000000D+00  0.0000000000000D+00  0.0000000000000D+00
   226  2.2500000000000D+00  0.0000000000000D+00  0.0000000000000D+00
   227  2.2600000000000D+00  0.0000000000000D+00  0.0000000000000D+00
   228  2.2700000000000D+00  0.0000000000000D+00  0.0000000000000D+00
   229  2.2800000000000D+00  0.0000000000000D+00  0.0000000000000D+00
   230  2.2900000000000D+00  0.0000000000000D+00  0.0000000000000D+00
   231  2.3000000000000D+00  0.0000000000000D+00  0.0000000000000D+00
   232  2.3100000000000D+00  0.0000000000000D+00  0.0000000000000D+00
   233  2.3200000000000D+00  0.0000000000000D+00  0.0000000000000D+00
   234  2.3300000000000D+00  0.0000000000000D+00  0.0000000000000D+00
   235  2.3400000000000D+00  0.0000000000000D+00  0.0000000000000D+00
   236  2.3500000000000D+00  0.0000000000000D+00  0.0000000000000D+00
   237  2.3600000000000D+00  0.0000000000000D+00  0.0000000000000D+00
   238  2.3700000000000D+00  0.0000000000000D+00  0.0000000000000D+00
   239  2.3800000000000D+00  0.0000000000000D+00  0.0000000000000D+00
   240  2.3900000000000D+00  0.0000000000000D+00  0.0000000000000D+00
   241  2.4000000000000D+00  0.0000000000000D+00  0.0000000000000D+00
   242  2.4100000000000D+00  0.0000000000000D+00  0.0000000000000D+00
   243  2.4200000000000D+00  0.0000000000000D+00  0.0000000000000D+00
   244  2.4300000000000D+00  0.0000000000000D+00  0.0000000000000D+00
   245  2.4400000000000D+00  0.0000000000000D+00  0.0000000000000D+00
   246  2.4500000000000D+00  0.0000000000000D+00  0.0000000000000D+00
   247  2.4600000000000D+00  0.0000000000000D+00  0.0000000000000D+00
   248  2.4700000000000D+00  0.0000000000000D+00  0.0000000000000D+00
   249  2.4800000000000D+00  0.0000000000000D+00  0.0000000000000D+00
   250  2.4900000000000D+00  0.0000000000000D+00  0.0000000000000D+00
   251  2.5000000000000D+00  0.0000000000000D+00  0.0000000000000D+00
   252  2.5100000000000D+00  0.0000000000000D+00  0.0000000000000D+00
   253  2.5200000000000D+00  0.0000000000000D+00  0.0000000000000D+00
   254  2.5300000000000D+00  0.0000000000000D+00  0.0000000000000D+00
   255  2.5400000000000D+00  0.0000000000000D+00  0.0000000000000D+00
   256  2.5500000000000D+00  0.0000000000000D+00  0.0000000000000D+00
   257  2.5600000000000D+00  0.0000000000000D+00  0.0000000000000D+00
   258  2.5700000000000D+00  0.0000000000000D+00  0.0000000000000D+00
   259  2.5800000000000D+00  0.0000000000000D+00  0.0000000000000D+00
   260  2.5900000000000D+00  0.0000000000000D+00  0.0000000000000D+00
   261  2.6000000000000D+00  0.0000000000000D+00  0.0000000000000D+00
   262  2.6100000000000D+00  0.0000000000000D+00  0.0000000000000D+00
   263  2.6200000000000D+00  0.0000000000000D+00  0.0000000000000D+00
   264  2.6300000000000D+00  0.0000000000000D+00  0.0000000000000D+00
   265  2.6400000000000D+00  0.0000000000000D+00  0.0000000000000D+00
   266  2.6500000000000D+00  0.0000000000000D+00  0.0000000000000D+00
   267  2.6600000000000D+00  0.0000000000000D+00  0.0000000000000D+00
   268  2.6700000000000D+00  0.0000000000000D+00  0.0000000000000D+00
   269  2.6800000000000D+00  0.0000000000000D+00  0.0000000000000D+00
   270  2.6900000000000D+00  0.0000000000000D+00  0.0000000000000D+00
   271  2.7000000000000D+00  0.0000000000000D+00  0.0000000000000D+00
   272  2.7100000000000D+00  0.0000000000000D+00  0.0000000000000D+00
   273  2.7200000000000D+00  0.0000000000000D+00  0.0000000000000D+00
   274  2.7300000000000D+00  0.0000000000000D+00  0.0000000000000D+00
   275  2.7400000000000D+00  0.0000000000000D+00  0.0000000000000D+00
   276  2.7500000000000D+00  0.0000000000000D+00  0.0000000000000D+00
   277  2.7600000000000D+00  0.0000000000000D+00  0.0000000000000D+00
   278  2.7700000000000D+00  0.0000000000000D+00  0.0000000000000D+00
   279  2.7800000000000D+00  0.0000000000000D+00  0.0000000000000D+00
   280  2.7900000000000D+00  0.0000000000000D+00  0.0000000000000D+00
   281  2.8000000000000D+00  0.0000000000000D+00  0.0000000000000D+00
   282  2.8100000000000D+00  0.0000000000000D+00  0.0000000000000D+00
   283  2.8200000000000D+00  0.0000000000000D+00  0.0000000000000D+00
   284  2.8300000000000D+00  0.0000000000000D+00  0.0000000000000D+00
   285  2.8400000000000D+00  0.0000000000000D+00  0.0000000000000D+00
   286  2.8500000000000D+00  0.0000000000000D+00  0.0000000000000D+00
   287  2.8600000000000D+00  0.0000000000000D+00  0.0000000000000D+00
   288  2.8700000000000D+00  0.0000000000000D+00  0.0000000000000D+00
   289  2.8800000000000D+00  0.0000000000000D+00  0.0000000000000D+00
   290  2.8900000000000D+00  0.0000000000000D+00  0.0000000000000D+00
   291  2.9000000000000D+00  0.0000000000000D+00  0.0000000000000D+00
   292  2.9100000000000D+00  0.0000000000000D+00  0.0000000000000D+00
   293  2.9200000000000D+00  0.0000000000000D+00  0.0000000000000D+00
   294  2.9300000000000D+00  0.0000000000000D+00  0.0000000000000D+00
   295  2.9400000000000D+00  0.0000000000000D+00  0.0000000000000D+00
   296  2.9500000000000D+00  0.0000000000000D+00  0.0000000000000D+00
   297  2.9600000000000D+00  0.0000000000000D+00  0.0000000000000D+00
   298  2.9700000000000D+00  0.0000000000000D+00  0.0000000000000D+00
   299  2.9800000000000D+00  0.0000000000000D+00  0.0000000000000D+00
   300  2.9900000000000D+00  0.0000000000000D+00  0.0000000000000D+00
   301  3.0000000000000D+00  0.0000000000000D+00  0.0000000000000D+00
   302  3.0100000000000D+00  0.0000000000000D+00  0.0000000000000D+00
   303  3.0200000000000D+00  0.0000000000000D+00  0.0000000000000D+00
   304  3.0300000000000D+00  0.0000000000000D+00  0.0000000000000D+00
   305  3.0400000000000D+00  0.0000000000000D+00  0.0000000000000D+00
   306  3.0500000000000D+00  0.0000000000000D+00  0.0000000000000D+00
   307  3.0600000000000D+00  0.0000000000000D+00  0.0000000000000D+00
   308  3.0700000000000D+00  0.0000000000000D+00  0.0000000000000D+00
   309  3.0800000000000D+00  0.0000000000000D+00  0.0000000000000D+00
   310  3.0900000000000D+00  0.0000000000000D+00  0.0000000000000D+00
   311  3.1000000000000D+00  0.0000000000000D+00  0.0000000000000D+00
   312  3.1100000000000D+00  0.0000000000000D+00  0.0000000000000D+00
   313  3.1200000000000D+00  0.0000000000000D+00  0.0000000000000D+00
   314  3.1300000000000D+00  0.0000000000000D+00  0.0000000000000D+00
   315  3.1400000000000D+00  0.0000000000000D+00  0.0000000000000D+00
   316  3.1500000000000D+00  0.0000000000000D+00  0.0000000000000D+00
   317  3.1600000000000D+00  0.0000000000000D+00  0.0000000000000D+00
   318  3.1700000000000D+00  0.0000000000000D+00  0.0000000000000D+00
   319  3.1800000000000D+00  0.0000000000000D+00  0.0000000000000D+00
   320  3.1900000000000D+00  0.0000000000000D+00  0.0000000000000D+00
   321  3.2000000000000D+00  0.0000000000000D+00  0.0000000000000D+00
   322  3.2100000000000D+00  0.0000000000000D+00  0.0000000000000D+00
   323  3.2200000000000D+00  0.0000000000000D+00  0.0000000000000D+00
   324  3.2300000000000D+00  0.0000000000000D+00  0.0000000000000D+00
   325  3.2400000000000D+00  0.0000000000000D+00  0.0000000000000D+00
   326  3.2500000000000D+00  0.0000000000000D+00  0.0000000000000D+00
   327  3.2600000000000D+00  0.0000000000000D+00  0.0000000000000D+00
   328  3.2700000000000D+00  0.0000000000000D+00  0.0000000000000D+00
   329  3.2800000000000D+00  0.0000000000000D+00  0.0000000000000D+00
   330  3.2900000000000D+00  0.0000000000000D+00  0.0000000000000D+00
   331  3.3000000000000D+00  0.0000000000000D+00  0.0000000000000D+00
   332  3.3100000000000D+00  0.0000000000000D+00  0.0000000000000D+00
   333  3.3200000000000D+00  0.0000000000000D+00  0.0000000000000D+00
   334  3.3300000000000D+00  0.0000000000000D+00  0.0000000000000D+00
   335  3.3400000000000D+00  0.0000000000000D+00  0.0000000000000D+00
   336  3.3500000000000D+00  0.0000000000000D+00  0.0000000000000D+00
   337  3.3600000000000D+00  0.0000000000000D+00  0.0000000000000D+00
   338  3.3700000000000D+00  0.0000000000000D+00  0.0000000000000D+00
   339  3.3800000000000D+00  0.0000000000000D+00  0.0000000000000D+00
   340  3.3900000000000D+00  0.0000000000000D+00  0.0000000000000D+00
   341  3.4000000000000D+00  0.0000000000000D+00  0.0000000000000D+00
   342  3.4100000000000D+00  0.0000000000000D+00  0.0000000000000D+00
   343  3.4200000000000D+00  0.0000000000000D+00  0.0000000000000D+00
   344  3.4300000000000D+00  0.0000000000000D+00  0.0000000000000D+00
   345  3.4400000000000D+00  0.0000000000000D+00  0.0000000000000D+00
   346  3.4500000000000D+00  0.0000000000000D+00  0.0000000000000D+00
   347  3.4600000000000D+00  0.0000000000000D+00  0.0000000000000D+00
   348  3.4700000000000D+00  0.0000000000000D+00  0.0000000000000D+00
   349  3.4800000000000D+00  0.0000000000000D+00  0.0000000000000D+00
   350  3.4900000000000D+00  0.0000000000000D+00  0.0000000000000D+00
   351  3.5000000000000D+00  0.0000000000000D+00  0.0000000000000D+00
   352  3.5100000000000D+00  0.0000000000000D+00  0.0000000000000D+00
   353  3.5200000000000D+00  0.0000000000000D+00  0.0000000000000D+00
   354  3.5300000000000D+00  0.0000000000000D+00  0.0000000000000D+00
   355  3.5400000000000D+00  0.0000000000000D+00  0.0000000000000D+00
   356  3.5500000000000D+00  0.0000000000000D+00  0.0000000000000D+00
   357  3.5600000000000D+00  0.0000000000000D+00  0.0000000000000D+00
   358  3.5700000000000D+00  0.0000000000000D+00  0.0000000000000D+00
   359  3.5800000000000D+00  0.0000000000000D+00  0.0000000000000D+00
   360  3.5900000000000D+00  0.0000000000000D+00  0.0000000000000D+00
   361  3.6000000000000D+00  0.0000000000000D+00  0.0000000000000D+00
   362  3.6100000000000D+00  0.0000000000000D+00  0.0000000000000D+00
   363  3.6200000000000D+00  0.0000000000000D+00  0.0000000000000D+00
   364  3.6300000000000D+00  0.0000000000000D+00  0.0000000000000D+00
   365  3.6400000000000D+00  0.0000000000000D+00  0.0000000000000D+00
   366  3.6500000000000D+00  0.0000000000000D+00  0.0000000000000D+00
   367  3.6600000000000D+00  0.0000000000000D+00  0.0000000000000D+00
   368  3.6700000000000D+00  0.0000000000000D+00  0.0000000000000D+00
   369  3.6800000000000D+00  0.0000000000000D+00  0.0000000000000D+00
   370  3.6900000000000D+00  0.0000000000000D+00  0.0000000000000D+00
   371  3.7000000000000D+00  0.0000000000000D+00  0.0000000000000D+00
   372  3.7100000000000D+00  0.0000000000000D+00  0.0000000000000D+00
   373  3.7200000000000D+00  0.0000000000000D+00  0.0000000000000D+00
   374  3.7300000000000D+00  0.0000000000000D+00  0.0000000000000D+00
   375  3.7400000000000D+00  0.0000000000000D+00  0.0000000000000D+00
   376  3.7500000000000D+00  0.0000000000000D+00  0.0000000000000D+00
   377  3.7600000000000D+00  0.0000000000000D+00  0.0000000000000D+00
   378  3.7700000000000D+00  0.0000000000000D+00  0.0000000000000D+00
   379  3.7800000000000D+00  0.0000000000000D+00  0.0000000000000D+00
   380  3.7900000000000D+00  0.0000000000000D+00  0.0000000000000D+00
   381  3.8000000000000D+00  0.0000000000000D+00  0.0000000000000D+00
   382  3.8100000000000D+00  0.0000000000000D+00  0.0000000000000D+00
   383  3.8200000000000D+00  0.0000000000000D+00  0.0000000000000D+00
   384  3.8300000000000D+00  0.0000000000000D+00  0.0000000000000D+00
   385  3.8400000000000D+00  0.0000000000000D+00  0.0000000000000D+00
   386  3.8500000000000D+00  0.0000000000000D+00  0.0000000000000D+00
   387  3.8600000000000D+00  0.0000000000000D+00  0.0000000000000D+00
   388  3.8700000000000D+00  0.0000000000000D+00  0.0000000000000D+00
   389  3.8800000000000D+00  0.0000000000000D+00  0.0000000000000D+00
   390  3.8900000000000D+00  0.0000000000000D+00  0.0000000000000D+00
   391  3.9000000000000D+00  0.0000000000000D+00  0.0000000000000D+00
   392  3.9100000000000D+00  0.0000000000000D+00  0.0000000000000D+00
   393  3.9200000000000D+00  0.0000000000000D+00  0.0000000000000D+00
   394  3.9300000000000D+00  0.0000000000000D+00  0.0000000000000D+00
   395  3.9400000000000D+00  0.0000000000000D+00  0.0000000000000D+00
   396  3.9500000000000D+00  0.0000000000000D+00  0.0000000000000D+00
   397  3.9600000000000D+00  0.0000000000000D+00  0.0000000000000D+00
   398  3.9700000000000D+00  0.0000000000000D+00  0.0000000000000D+00
   399  3.9800000000000D+00  0.0000000000000D+00  0.0000000000000D+00
   400  3.9900000000000D+00  0.0000000000000D+00  0.0000000000000D+00
   401  4.0000000000000D+00  0.0000000000000D+00  0.0000000000000D+00
   402  4.0100000000000D+00  0.0000000000000D+00  0.0000000000000D+00
   403  4.0200000000000D+00  0.0000000000000D+00  0.0000000000000D+00
   404  4.0300000000000D+00  0.0000000000000D+00  0.0000000000000D+00
   405  4.0400000000000D+00  0.0000000000000D+00  0.0000000000000D+00
   406  4.0500000000000D+00  0.0000000000000D+00  0.0000000000000D+00
   407  4.0600000000000D+00  0.0000000000000D+00  0.0000000000000D+00
   408  4.0700000000000D+00  0.0000000000000D+00  0.0000000000000D+00
   409  4.0800000000000D+00  0.0000000000000D+00  0.0000000000000D+00
   410  4.0900000000000D+00  0.0000000000000D+00  0.0000000000000D+00
   411  4.1000000000000D+00  0.0000000000000D+00  0.0000000000000D+00
   412  4.1100000000000D+00  0.0000000000000D+00  0.0000000000000D+00
   413  4.1200000000000D+00  0.0000000000000D+00  0.0000000000000D+00
   414  4.1300000000000D+00  0.0000000000000D+00  0.0000000000000D+00
   415  4.1400000000000D+00  0.0000000000000D+00  0.0000000000000D+00
   416  4.1500000000000D+00  0.0000000000000D+00  0.0000000000000D+00
   417  4.1600000000000D+00  0.0000000000000D+00  0.0000000000000D+00
   418  4.1700000000000D+00  0.0000000000000D+00  0.0000000000000D+00
   419  4.1800000000000D+00  0.0000000000000D+00  0.0000000000000D+00
   420  4.1900000000000D+00  0.0000000000000D+00  0.0000000000000D+00
   421  4.2000000000000D+00  0.0000000000000D+00  0.0000000000000D+00
   422  4.2100000000000D+00  0.0000000000000D+00  0.0000000000000D+00