Sr    ONCVPSP-3.3.0  r_core=   1.66721   1.31335   1.51547
     38.0000     10.0000      220117    zatom,zion,pspd
     8      11   2     4   600     0    pspcod,pspxc,lmax,lloc,mmax,r2well
  5.99000000  0.00000000  0.00000000    rchrg fchrg qchrg
     2     2     2     0     0    nproj
     1     1           extension_switch
   0                         9.9511265728706D+00  1.0278242103508D+00
     1  0.0000000000000D+00 -7.3935690902971D-11  3.8908479216282D-10
     2  1.0000000000000D-02  4.3412212220311D-02 -2.5710456860198D-02
     3  2.0000000000000D-02  8.6784122106084D-02 -5.1316374318077D-02
     4  3.0000000000000D-02  1.3007551827043D-01 -7.6713980828055D-02
     5  4.0000000000000D-02  1.7324636988135D-01 -1.0180103179474D-01
     6  5.0000000000000D-02  2.1625691360706D-01 -1.2647755123974D-01
     7  6.0000000000000D-02  2.5906773661602D-01 -1.5064654757703D-01
     8  7.0000000000000D-02  3.0163985440415D-01 -1.7421469532787D-01
     9  8.0000000000000D-02  3.4393478229598D-01 -1.9709297499501D-01
    10  9.0000000000000D-02  3.8591459955719D-01 -2.1919726379522D-01
    11  1.0000000000000D-01  4.2754200516288D-01 -2.4044887051239D-01
    12  1.1000000000000D-01  4.6878036438691D-01 -2.6077500837577D-01
    13  1.2000000000000D-01  5.0959374551284D-01 -2.8010920058230D-01
    14  1.3000000000000D-01  5.4994694611248D-01 -2.9839161386067D-01
    15  1.4000000000000D-01  5.8980550849501D-01 -3.1556931631003D-01
    16  1.5000000000000D-01  6.2913572409331D-01 -3.3159645662858D-01
    17  1.6000000000000D-01  6.6790462672513D-01 -3.4643436276798D-01
    18  1.7000000000000D-01  7.0607997484086D-01 -3.6005155899805D-01
    19  1.8000000000000D-01  7.4363022304679D-01 -3.7242370133315D-01
    20  1.9000000000000D-01  7.8052448336864D-01 -3.8353343224483D-01
    21  2.0000000000000D-01  8.1673247689479D-01 -3.9337015655707D-01
    22  2.1000000000000D-01  8.5222447660789D-01 -4.0192974137612D-01
    23  2.2000000000000D-01  8.8697124237639D-01 -4.0921414383917D-01
    24  2.3000000000000D-01  9.2094394923177D-01 -4.1523097136308D-01
    25  2.4000000000000D-01  9.5411411020006D-01 -4.1999297992483D-01
    26  2.5000000000000D-01  9.8645349508651D-01 -4.2351751670159D-01
    27  2.6000000000000D-01  1.0179340467276D+00 -4.2582591412859D-01
    28  2.7000000000000D-01  1.0485277963236D+00 -4.2694284309051D-01
    29  2.8000000000000D-01  1.0782067795448D+00 -4.2689563353684D-01
    30  2.9000000000000D-01  1.1069429551678D+00 -4.2571357129770D-01
    31  3.0000000000000D-01  1.1347081280346D+00 -4.2342718026647D-01
    32  3.1000000000000D-01  1.1614738781513D+00 -4.2006749940423D-01
    33  3.2000000000000D-01  1.1872114977342D+00 -4.1566536420317D-01
    34  3.3000000000000D-01  1.2118919379871D+00 -4.1025070231929D-01
    35  3.4000000000000D-01  1.2354857673417D+00 -4.0385185304524D-01
    36  3.5000000000000D-01  1.2579631428199D+00 -3.9649492014180D-01
    37  3.6000000000000D-01  1.2792937960781D+00 -3.8820316728100D-01
    38  3.7000000000000D-01  1.2994470355746D+00 -3.7899646497597D-01
    39  3.8000000000000D-01  1.3183917661602D+00 -3.6889079738544D-01
    40  3.9000000000000D-01  1.3360965272242D+00 -3.5789783678754D-01
    41  4.0000000000000D-01  1.3525295503521D+00 -3.4602459282320D-01
    42  4.1000000000000D-01  1.3676588372433D+00 -3.3327314282031D-01
    43  4.2000000000000D-01  1.3814522584237D+00 -3.1964044863266D-01
    44  4.3000000000000D-01  1.3938776730550D+00 -3.0511826447130D-01
    45  4.4000000000000D-01  1.4049030698963D+00 -2.8969313917920D-01
    46  4.5000000000000D-01  1.4144967292224D+00 -2.7334651531391D-01
    47  4.6000000000000D-01  1.4226274052392D+00 -2.5605492626726D-01
    48  4.7000000000000D-01  1.4292645282716D+00 -2.3779029147912D-01
    49  4.8000000000000D-01  1.4343784257318D+00 -2.1852030860583D-01
    50  4.9000000000000D-01  1.4379405606093D+00 -1.9820894029530D-01
    51  5.0000000000000D-01  1.4399237859608D+00 -1.7681699201517D-01
    52  5.1000000000000D-01  1.4403026136257D+00 -1.5430277618924D-01
    53  5.2000000000000D-01  1.4390534951466D+00 -1.3062285673586D-01
    54  5.3000000000000D-01  1.4361551126427D+00 -1.0573286698366D-01
    55  5.4000000000000D-01  1.4315886771732D+00 -7.9588392877042D-02
    56  5.5000000000000D-01  1.4253382319265D+00 -5.2145912390562D-02
    57  5.6000000000000D-01  1.4173909574042D+00 -2.3363781160744D-02
    58  5.7000000000000D-01  1.4077374756133D+00  6.7967464752087D-03
    59  5.8000000000000D-01  1.3963721501644D+00  3.8370472554966D-02
    60  5.9000000000000D-01  1.3832933790739D+00  7.1387198802472D-02
    61  6.0000000000000D-01  1.3685038770125D+00  1.0587067076777D-01
    62  6.1000000000000D-01  1.3520109437059D+00  1.4183753573190D-01
    63  6.2000000000000D-01  1.3338267152025D+00  1.7929632751515D-01
    64  6.3000000000000D-01  1.3139683947575D+00  2.1824649138744D-01
    65  6.4000000000000D-01  1.2924584601571D+00  2.5867746219092D-01
    66  6.5000000000000D-01  1.2693248444162D+00  3.0056780854948D-01
    67  6.6000000000000D-01  1.2446010869244D+00  3.4388445565047D-01
    68  6.7000000000000D-01  1.2183264522955D+00  3.8858199854882D-01
    69  6.8000000000000D-01  1.1905460143865D+00  4.3460211726454D-01
    70  6.9000000000000D-01  1.1613107031960D+00  4.8187310411775D-01
    71  7.0000000000000D-01  1.1306773126272D+00  5.3030951278980D-01
    72  7.1000000000000D-01  1.0987084674047D+00  5.7981193751200D-01
    73  7.2000000000000D-01  1.0654725477621D+00  6.3026692958510D-01
    74  7.3000000000000D-01  1.0310435708695D+00  6.8154705711467D-01
    75  7.4000000000000D-01  9.9550102834702D-01  7.3351111244993D-01
    76  7.5000000000000D-01  9.5892967959308D-01  7.8600447032404D-01
    77  7.6000000000000D-01  9.2141930106619D-01  8.3885959814267D-01
    78  7.7000000000000D-01  8.8306439206552D-01  8.9189671826441D-01
    79  7.8000000000000D-01  8.4396383797536D-01  9.4492462048288D-01
    80  7.9000000000000D-01  8.0422053235728D-01  9.9774162126133D-01
    81  8.0000000000000D-01  7.6394095968780D-01  1.0501366646226D+00
    82  8.1000000000000D-01  7.2323474094806D-01  1.1018905579630D+00
    83  8.2000000000000D-01  6.8221414466743D-01  1.1527773344612D+00
    84  8.3000000000000D-01  6.4099356640313D-01  1.2025657322149D+00
    85  8.4000000000000D-01  5.9968897999711D-01  1.2510207787685D+00
    86  8.5000000000000D-01  5.5841736428674D-01  1.2979054683180D+00
    87  8.6000000000000D-01  5.1729610925242D-01  1.3429825176118D+00
    88  8.7000000000000D-01  4.7644240586048D-01  1.3860161854128D+00
    89  8.8000000000000D-01  4.3597262409887D-01  1.4267741393824D+00
    90  8.9000000000000D-01  3.9600168390485D-01  1.4650293533816D+00
    91  9.0000000000000D-01  3.5664242384398D-01  1.5005620174874D+00
    92  9.1000000000000D-01  3.1800497251667D-01  1.5331614424957D+00
    93  9.2000000000000D-01  2.8019612774057D-01  1.5626279403339D+00
    94  9.3000000000000D-01  2.4331874858207D-01  1.5887746616473D+00
    95  9.4000000000000D-01  2.0747116528833D-01  1.6114293718520D+00
    96  9.5000000000000D-01  1.7274661210061D-01  1.6304361471755D+00
    97  9.6000000000000D-01  1.3923268781127D-01  1.6456569726213D+00
    98  9.7000000000000D-01  1.0701084876409D-01  1.6569732243972D+00
    99  9.8000000000000D-01  7.6155938782257D-02  1.6642870201573D+00
   100  9.9000000000000D-01  4.6735760255122D-02  1.6675224213744D+00
   101  1.0000000000000D+00  1.8810690315522D-02  1.6666264733169D+00
   102  1.0100000000000D+00 -7.5666542986020D-03  1.6615700694139D+00
   103  1.0200000000000D+00 -3.2351700478434D-02  1.6523486282551D+00
   104  1.0300000000000D+00 -5.5508147274678D-02  1.6389825731173D+00
   105  1.0400000000000D+00 -7.7008137329660D-02  1.6215176054991D+00
   106  1.0500000000000D+00 -9.6832369322915D-02  1.6000247661450D+00
   107  1.0600000000000D+00 -1.1497014999455D-01  1.5746002788177D+00
   108  1.0700000000000D+00 -1.3141938481744D-01  1.5453651740839D+00
   109  1.0800000000000D+00 -1.4618650692430D-01  1.5124646924890D+00
   110  1.0900000000000D+00 -1.5928634434755D-01  1.4760674682806D+00
   111  1.1000000000000D+00 -1.7074192622084D-01  1.4363644971755D+00
   112  1.1100000000000D+00 -1.8058422905544D-01  1.3935678934941D+00
   113  1.1200000000000D+00 -1.8885186472972D-01  1.3479094440548D+00
   114  1.1300000000000D+00 -1.9559071229196D-01  1.2996389680321D+00
   115  1.1400000000000D+00 -2.0085349613756D-01  1.2490224937940D+00
   116  1.1500000000000D+00 -2.0469931360258D-01  1.1963402656039D+00
   117  1.1600000000000D+00 -2.0719311539287D-01  1.1418845945372D+00
   118  1.1700000000000D+00 -2.0840514262001D-01  1.0859575693170D+00
   119  1.1800000000000D+00 -2.0841032457745D-01  1.0288686441633D+00
   120  1.1900000000000D+00 -2.0728764169716D-01  9.7093212190104D-01
   121  1.2000000000000D+00 -2.0511945835127D-01  9.1246455138477D-01
   122  1.2100000000000D+00 -2.0199083032150D-01  8.5378205888792D-01
   123  1.2200000000000D+00 -1.9798879200531D-01  7.9519763395008D-01
   124  1.2300000000000D+00 -1.9320162843544D-01  7.3701839012009D-01
   125  1.2400000000000D+00 -1.8771813725454D-01  6.7954282121330D-01
   126  1.2500000000000D+00 -1.8162688582259D-01  6.2305807371523D-01
   127  1.2600000000000D+00 -1.7501546849235D-01  5.6783725524194D-01
   128  1.2700000000000D+00 -1.6796976856646D-01  5.1413679564437D-01
   129  1.2800000000000D+00 -1.6057323243132D-01  4.6219389718418D-01
   130  1.2900000000000D+00 -1.5290614801213D-01  4.1222401261816D-01
   131  1.3000000000000D+00 -1.4504499158509D-01  3.6441874165116D-01
   132  1.3100000000000D+00 -1.3706166358209D-01  3.1894300706128D-01
   133  1.3200000000000D+00 -1.2902290634018D-01  2.7593333899890D-01
   134  1.3300000000000D+00 -1.2099029929900D-01  2.3550001252496D-01
   135  1.3400000000000D+00 -1.1302039874674D-01  1.9772946768395D-01
   136  1.3500000000000D+00 -1.0516502583826D-01  1.6268725018070D-01
   137  1.3600000000000D+00 -9.7471014813644D-02  1.3041706730192D-01
   138  1.3700000000000D+00 -8.9980110173831D-02  1.0094069347498D-01
   139  1.3800000000000D+00 -8.2728930949270D-02  7.4258252413156D-02
   140  1.3900000000000D+00 -7.5748968652637D-02  5.0348574053085D-02
   141  1.4000000000000D+00 -6.9066634958542D-02  2.9169765801881D-02
   142  1.4100000000000D+00 -6.2703356105327D-02  1.0659974446070D-02
   143  1.4200000000000D+00 -5.6675712912674D-02 -5.2616646414069D-03
   144  1.4300000000000D+00 -5.0995623858402D-02 -1.8693902892818D-02
   145  1.4400000000000D+00 -4.5670569713708D-02 -2.9752085351975D-02
   146  1.4500000000000D+00 -4.0703855814902D-02 -3.8566706170800D-02
   147  1.4600000000000D+00 -3.6094909730057D-02 -4.5281822806263D-02
   148  1.4700000000000D+00 -3.1839610199121D-02 -5.0053347046290D-02
   149  1.4800000000000D+00 -2.7930643596506D-02 -5.3047229320197D-02
   150  1.4900000000000D+00 -2.4357884074526D-02 -5.4437553234862D-02
   151  1.5000000000000D+00 -2.1108792446106D-02 -5.4404561785655D-02
   152  1.5100000000000D+00 -1.8168829935663D-02 -5.3132632323000D-02
   153  1.5200000000000D+00 -1.5521881493104D-02 -5.0808223191443D-02
   154  1.5300000000000D+00 -1.3150684356313D-02 -4.7617810941674D-02
   155  1.5400000000000D+00 -1.1037256718994D-02 -4.3745840340692D-02
   156  1.5500000000000D+00 -9.1633220320610D-03 -3.9372706596886D-02
   157  1.5600000000000D+00 -7.5107237426579D-03 -3.4672792290720D-02
   158  1.5700000000000D+00 -6.0618266039001D-03 -2.9812575672090D-02
   159  1.5800000000000D+00 -4.7998989149624D-03 -2.4948834755325D-02
   160  1.5900000000000D+00 -3.7094731847034D-03 -2.0226957900362D-02
   161  1.6000000000000D+00 -2.7766788640859D-03 -1.5779388391230D-02
   162  1.6100000000000D+00 -1.9896431208543D-03 -1.1724898771732D-02
   163  1.6200000000000D+00 -1.3387381556973D-03 -8.1671865370822D-03
   164  1.6300000000000D+00 -8.1478920305034D-04 -5.1778709718776D-03
   165  1.6400000000000D+00 -4.1391357117797D-04 -2.8314234316403D-03
   166  1.6500000000000D+00 -1.4055645021866D-04 -1.2441334271032D-03
   167  1.6600000000000D+00  8.8963543675333D-06 -4.0160687327430D-04
   168  1.6700000000000D+00  5.2387519101462D-05 -6.7094683292813D-05
   169  1.6800000000000D+00  2.7147024284432D-05  9.7020961041233D-06
   170  1.6900000000000D+00 -5.0019156236903D-06 -3.9376371362083D-06
   171  1.7000000000000D+00 -7.7419530710101D-06 -8.3154450749693D-06
   172  1.7100000000000D+00  8.5207230675369D-07  3.8165397814738D-07
   173  1.7200000000000D+00  1.7172462779904D-06  9.9832583093031D-07
   174  1.7300000000000D+00 -5.0196336839043D-08  1.2740991966304D-07
   175  1.7400000000000D+00 -1.3459203359237D-07  3.4162572942876D-07
   176  1.7500000000000D+00  0.0000000000000D+00  0.0000000000000D+00
   177  1.7600000000000D+00  0.0000000000000D+00  0.0000000000000D+00
   178  1.7700000000000D+00  0.0000000000000D+00  0.0000000000000D+00
   179  1.7800000000000D+00  0.0000000000000D+00  0.0000000000000D+00
   180  1.7900000000000D+00  0.0000000000000D+00  0.0000000000000D+00
   181  1.8000000000000D+00  0.0000000000000D+00  0.0000000000000D+00
   182  1.8100000000000D+00  0.0000000000000D+00  0.0000000000000D+00
   183  1.8200000000000D+00  0.0000000000000D+00  0.0000000000000D+00
   184  1.8300000000000D+00  0.0000000000000D+00  0.0000000000000D+00
   185  1.8400000000000D+00  0.0000000000000D+00  0.0000000000000D+00
   186  1.8500000000000D+00  0.0000000000000D+00  0.0000000000000D+00
   187  1.8600000000000D+00  0.0000000000000D+00  0.0000000000000D+00
   188  1.8700000000000D+00  0.0000000000000D+00  0.0000000000000D+00
   189  1.8800000000000D+00  0.0000000000000D+00  0.0000000000000D+00
   190  1.8900000000000D+00  0.0000000000000D+00  0.0000000000000D+00
   191  1.9000000000000D+00  0.0000000000000D+00  0.0000000000000D+00
   192  1.9100000000000D+00  0.0000000000000D+00  0.0000000000000D+00
   193  1.9200000000000D+00  0.0000000000000D+00  0.0000000000000D+00
   194  1.9300000000000D+00  0.0000000000000D+00  0.0000000000000D+00
   195  1.9400000000000D+00  0.0000000000000D+00  0.0000000000000D+00
   196  1.9500000000000D+00  0.0000000000000D+00  0.0000000000000D+00
   197  1.9600000000000D+00  0.0000000000000D+00  0.0000000000000D+00
   198  1.9700000000000D+00  0.0000000000000D+00  0.0000000000000D+00
   199  1.9800000000000D+00  0.0000000000000D+00  0.0000000000000D+00
   200  1.9900000000000D+00  0.0000000000000D+00  0.0000000000000D+00
   201  2.0000000000000D+00  0.0000000000000D+00  0.0000000000000D+00
   202  2.0100000000000D+00  0.0000000000000D+00  0.0000000000000D+00
   203  2.0200000000000D+00  0.0000000000000D+00  0.0000000000000D+00
   204  2.0300000000000D+00  0.0000000000000D+00  0.0000000000000D+00
   205  2.0400000000000D+00  0.0000000000000D+00  0.0000000000000D+00
   206  2.0500000000000D+00  0.0000000000000D+00  0.0000000000000D+00
   207  2.0600000000000D+00  0.0000000000000D+00  0.0000000000000D+00
   208  2.0700000000000D+00  0.0000000000000D+00  0.0000000000000D+00
   209  2.0800000000000D+00  0.0000000000000D+00  0.0000000000000D+00
   210  2.0900000000000D+00  0.0000000000000D+00  0.0000000000000D+00
   211  2.1000000000000D+00  0.0000000000000D+00  0.0000000000000D+00
   212  2.1100000000000D+00  0.0000000000000D+00  0.0000000000000D+00
   213  2.1200000000000D+00  0.0000000000000D+00  0.0000000000000D+00
   214  2.1300000000000D+00  0.0000000000000D+00  0.0000000000000D+00
   215  2.1400000000000D+00  0.0000000000000D+00  0.0000000000000D+00
   216  2.1500000000000D+00  0.0000000000000D+00  0.0000000000000D+00
   217  2.1600000000000D+00  0.0000000000000D+00  0.0000000000000D+00
   218  2.1700000000000D+00  0.0000000000000D+00  0.0000000000000D+00
   219  2.1800000000000D+00  0.0000000000000D+00  0.0000000000000D+00
   220  2.1900000000000D+00  0.0000000000000D+00  0.0000000000000D+00
   221  2.2000000000000D+00  0.0000000000000D+00  0.0000000000000D+00
   222  2.2100000000000D+00  0.0000000000000D+00  0.0000000000000D+00
   223  2.2200000000000D+00  0.0000000000000D+00  0.0000000000000D+00
   224  2.2300000000000D+00  0.0000000000000D+00  0.0000000000000D+00
   225  2.2400000000000D+00  0.0000000000000D+00  0.0000000000000D+00
   226  2.2500000000000D+00  0.0000000000000D+00  0.0000000000000D+00
   227  2.2600000000000D+00  0.0000000000000D+00  0.0000000000000D+00
   228  2.2700000000000D+00  0.0000000000000D+00  0.0000000000000D+00
   229  2.2800000000000D+00  0.0000000000000D+00  0.0000000000000D+00
   230  2.2900000000000D+00  0.0000000000000D+00  0.0000000000000D+00
   231  2.3000000000000D+00  0.0000000000000D+00  0.0000000000000D+00
   232  2.3100000000000D+00  0.0000000000000D+00  0.0000000000000D+00
   233  2.3200000000000D+00  0.0000000000000D+00  0.0000000000000D+00
   234  2.3300000000000D+00  0.0000000000000D+00  0.0000000000000D+00
   235  2.3400000000000D+00  0.0000000000000D+00  0.0000000000000D+00
   236  2.3500000000000D+00  0.0000000000000D+00  0.0000000000000D+00
   237  2.3600000000000D+00  0.0000000000000D+00  0.0000000000000D+00
   238  2.3700000000000D+00  0.0000000000000D+00  0.0000000000000D+00
   239  2.3800000000000D+00  0.0000000000000D+00  0.0000000000000D+00
   240  2.3900000000000D+00  0.0000000000000D+00  0.0000000000000D+00
   241  2.4000000000000D+00  0.0000000000000D+00  0.0000000000000D+00
   242  2.4100000000000D+00  0.0000000000000D+00  0.0000000000000D+00
   243  2.4200000000000D+00  0.0000000000000D+00  0.0000000000000D+00
   244  2.4300000000000D+00  0.0000000000000D+00  0.0000000000000D+00
   245  2.4400000000000D+00  0.0000000000000D+00  0.0000000000000D+00
   246  2.4500000000000D+00  0.0000000000000D+00  0.0000000000000D+00
   247  2.4600000000000D+00  0.0000000000000D+00  0.0000000000000D+00
   248  2.4700000000000D+00  0.0000000000000D+00  0.0000000000000D+00
   249  2.4800000000000D+00  0.0000000000000D+00  0.0000000000000D+00
   250  2.4900000000000D+00  0.0000000000000D+00  0.0000000000000D+00
   251  2.5000000000000D+00  0.0000000000000D+00  0.0000000000000D+00
   252  2.5100000000000D+00  0.0000000000000D+00  0.0000000000000D+00
   253  2.5200000000000D+00  0.0000000000000D+00  0.0000000000000D+00
   254  2.5300000000000D+00  0.0000000000000D+00  0.0000000000000D+00
   255  2.5400000000000D+00  0.0000000000000D+00  0.0000000000000D+00
   256  2.5500000000000D+00  0.0000000000000D+00  0.0000000000000D+00
   257  2.5600000000000D+00  0.0000000000000D+00  0.0000000000000D+00
   258  2.5700000000000D+00  0.0000000000000D+00  0.0000000000000D+00
   259  2.5800000000000D+00  0.0000000000000D+00  0.0000000000000D+00
   260  2.5900000000000D+00  0.0000000000000D+00  0.0000000000000D+00
   261  2.6000000000000D+00  0.0000000000000D+00  0.0000000000000D+00
   262  2.6100000000000D+00  0.0000000000000D+00  0.0000000000000D+00
   263  2.6200000000000D+00  0.0000000000000D+00  0.0000000000000D+00
   264  2.6300000000000D+00  0.0000000000000D+00  0.0000000000000D+00
   265  2.6400000000000D+00  0.0000000000000D+00  0.0000000000000D+00
   266  2.6500000000000D+00  0.0000000000000D+00  0.0000000000000D+00
   267  2.6600000000000D+00  0.0000000000000D+00  0.0000000000000D+00
   268  2.6700000000000D+00  0.0000000000000D+00  0.0000000000000D+00
   269  2.6800000000000D+00  0.0000000000000D+00  0.0000000000000D+00
   270  2.6900000000000D+00  0.0000000000000D+00  0.0000000000000D+00
   271  2.7000000000000D+00  0.0000000000000D+00  0.0000000000000D+00
   272  2.7100000000000D+00  0.0000000000000D+00  0.0000000000000D+00
   273  2.7200000000000D+00  0.0000000000000D+00  0.0000000000000D+00
   274  2.7300000000000D+00  0.0000000000000D+00  0.0000000000000D+00
   275  2.7400000000000D+00  0.0000000000000D+00  0.0000000000000D+00
   276  2.7500000000000D+00  0.0000000000000D+00  0.0000000000000D+00
   277  2.7600000000000D+00  0.0000000000000D+00  0.0000000000000D+00
   278  2.7700000000000D+00  0.0000000000000D+00  0.0000000000000D+00
   279  2.7800000000000D+00  0.0000000000000D+00  0.0000000000000D+00
   280  2.7900000000000D+00  0.0000000000000D+00  0.0000000000000D+00
   281  2.8000000000000D+00  0.0000000000000D+00  0.0000000000000D+00
   282  2.8100000000000D+00  0.0000000000000D+00  0.0000000000000D+00
   283  2.8200000000000D+00  0.0000000000000D+00  0.0000000000000D+00
   284  2.8300000000000D+00  0.0000000000000D+00  0.0000000000000D+00
   285  2.8400000000000D+00  0.0000000000000D+00  0.0000000000000D+00
   286  2.8500000000000D+00  0.0000000000000D+00  0.0000000000000D+00
   287  2.8600000000000D+00  0.0000000000000D+00  0.0000000000000D+00
   288  2.8700000000000D+00  0.0000000000000D+00  0.0000000000000D+00
   289  2.8800000000000D+00  0.0000000000000D+00  0.0000000000000D+00
   290  2.8900000000000D+00  0.0000000000000D+00  0.0000000000000D+00
   291  2.9000000000000D+00  0.0000000000000D+00  0.0000000000000D+00
   292  2.9100000000000D+00  0.0000000000000D+00  0.0000000000000D+00
   293  2.9200000000000D+00  0.0000000000000D+00  0.0000000000000D+00
   294  2.9300000000000D+00  0.0000000000000D+00  0.0000000000000D+00
   295  2.9400000000000D+00  0.0000000000000D+00  0.0000000000000D+00
   296  2.9500000000000D+00  0.0000000000000D+00  0.0000000000000D+00
   297  2.9600000000000D+00  0.0000000000000D+00  0.0000000000000D+00
   298  2.9700000000000D+00  0.0000000000000D+00  0.0000000000000D+00
   299  2.9800000000000D+00  0.0000000000000D+00  0.0000000000000D+00
   300  2.9900000000000D+00  0.0000000000000D+00  0.0000000000000D+00
   301  3.0000000000000D+00  0.0000000000000D+00  0.0000000000000D+00
   302  3.0100000000000D+00  0.0000000000000D+00  0.0000000000000D+00
   303  3.0200000000000D+00  0.0000000000000D+00  0.0000000000000D+00
   304  3.0300000000000D+00  0.0000000000000D+00  0.0000000000000D+00
   305  3.0400000000000D+00  0.0000000000000D+00  0.0000000000000D+00
   306  3.0500000000000D+00  0.0000000000000D+00  0.0000000000000D+00
   307  3.0600000000000D+00  0.0000000000000D+00  0.0000000000000D+00
   308  3.0700000000000D+00  0.0000000000000D+00  0.0000000000000D+00
   309  3.0800000000000D+00  0.0000000000000D+00  0.0000000000000D+00
   310  3.0900000000000D+00  0.0000000000000D+00  0.0000000000000D+00
   311  3.1000000000000D+00  0.0000000000000D+00  0.0000000000000D+00
   312  3.1100000000000D+00  0.0000000000000D+00  0.0000000000000D+00
   313  3.1200000000000D+00  0.0000000000000D+00  0.0000000000000D+00
   314  3.1300000000000D+00  0.0000000000000D+00  0.0000000000000D+00
   315  3.1400000000000D+00  0.0000000000000D+00  0.0000000000000D+00
   316  3.1500000000000D+00  0.0000000000000D+00  0.0000000000000D+00
   317  3.1600000000000D+00  0.0000000000000D+00  0.0000000000000D+00
   318  3.1700000000000D+00  0.0000000000000D+00  0.0000000000000D+00
   319  3.1800000000000D+00  0.0000000000000D+00  0.0000000000000D+00
   320  3.1900000000000D+00  0.0000000000000D+00  0.0000000000000D+00
   321  3.2000000000000D+00  0.0000000000000D+00  0.0000000000000D+00
   322  3.2100000000000D+00  0.0000000000000D+00  0.0000000000000D+00
   323  3.2200000000000D+00  0.0000000000000D+00  0.0000000000000D+00
   324  3.2300000000000D+00  0.0000000000000D+00  0.0000000000000D+00
   325  3.2400000000000D+00  0.0000000000000D+00  0.0000000000000D+00
   326  3.2500000000000D+00  0.0000000000000D+00  0.0000000000000D+00
   327  3.2600000000000D+00  0.0000000000000D+00  0.0000000000000D+00
   328  3.2700000000000D+00  0.0000000000000D+00  0.0000000000000D+00
   329  3.2800000000000D+00  0.0000000000000D+00  0.0000000000000D+00
   330  3.2900000000000D+00  0.0000000000000D+00  0.0000000000000D+00
   331  3.3000000000000D+00  0.0000000000000D+00  0.0000000000000D+00
   332  3.3100000000000D+00  0.0000000000000D+00  0.0000000000000D+00
   333  3.3200000000000D+00  0.0000000000000D+00  0.0000000000000D+00
   334  3.3300000000000D+00  0.0000000000000D+00  0.0000000000000D+00
   335  3.3400000000000D+00  0.0000000000000D+00  0.0000000000000D+00
   336  3.3500000000000D+00  0.0000000000000D+00  0.0000000000000D+00
   337  3.3600000000000D+00  0.0000000000000D+00  0.0000000000000D+00
   338  3.3700000000000D+00  0.0000000000000D+00  0.0000000000000D+00
   339  3.3800000000000D+00  0.0000000000000D+00  0.0000000000000D+00
   340  3.3900000000000D+00  0.0000000000000D+00  0.0000000000000D+00
   341  3.4000000000000D+00  0.0000000000000D+00  0.0000000000000D+00
   342  3.4100000000000D+00  0.0000000000000D+00  0.0000000000000D+00
   343  3.4200000000000D+00  0.0000000000000D+00  0.0000000000000D+00
   344  3.4300000000000D+00  0.0000000000000D+00  0.0000000000000D+00
   345  3.4400000000000D+00  0.0000000000000D+00  0.0000000000000D+00
   346  3.4500000000000D+00  0.0000000000000D+00  0.0000000000000D+00
   347  3.4600000000000D+00  0.0000000000000D+00  0.0000000000000D+00
   348  3.4700000000000D+00  0.0000000000000D+00  0.0000000000000D+00
   349  3.4800000000000D+00  0.0000000000000D+00  0.0000000000000D+00
   350  3.4900000000000D+00  0.0000000000000D+00  0.0000000000000D+00
   351  3.5000000000000D+00  0.0000000000000D+00  0.0000000000000D+00
   352  3.5100000000000D+00  0.0000000000000D+00  0.0000000000000D+00
   353  3.5200000000000D+00  0.0000000000000D+00  0.0000000000000D+00
   354  3.5300000000000D+00  0.0000000000000D+00  0.0000000000000D+00
   355  3.5400000000000D+00  0.0000000000000D+00  0.0000000000000D+00
   356  3.5500000000000D+00  0.0000000000000D+00  0.0000000000000D+00
   357  3.5600000000000D+00  0.0000000000000D+00  0.0000000000000D+00
   358  3.5700000000000D+00  0.0000000000000D+00  0.0000000000000D+00
   359  3.5800000000000D+00  0.0000000000000D+00  0.0000000000000D+00
   360  3.5900000000000D+00  0.0000000000000D+00  0.0000000000000D+00
   361  3.6000000000000D+00  0.0000000000000D+00  0.0000000000000D+00
   362  3.6100000000000D+00  0.0000000000000D+00  0.0000000000000D+00
   363  3.6200000000000D+00  0.0000000000000D+00  0.0000000000000D+00
   364  3.6300000000000D+00  0.0000000000000D+00  0.0000000000000D+00
   365  3.6400000000000D+00  0.0000000000000D+00  0.0000000000000D+00
   366  3.6500000000000D+00  0.0000000000000D+00  0.0000000000000D+00
   367  3.6600000000000D+00  0.0000000000000D+00  0.0000000000000D+00
   368  3.6700000000000D+00  0.0000000000000D+00  0.0000000000000D+00
   369  3.6800000000000D+00  0.0000000000000D+00  0.0000000000000D+00
   370  3.6900000000000D+00  0.0000000000000D+00  0.0000000000000D+00
   371  3.7000000000000D+00  0.0000000000000D+00  0.0000000000000D+00
   372  3.7100000000000D+00  0.0000000000000D+00  0.0000000000000D+00
   373  3.7200000000000D+00  0.0000000000000D+00  0.0000000000000D+00
   374  3.7300000000000D+00  0.0000000000000D+00  0.0000000000000D+00
   375  3.7400000000000D+00  0.0000000000000D+00  0.0000000000000D+00
   376  3.7500000000000D+00  0.0000000000000D+00  0.0000000000000D+00
   377  3.7600000000000D+00  0.0000000000000D+00  0.0000000000000D+00
   378  3.7700000000000D+00  0.0000000000000D+00  0.0000000000000D+00
   379  3.7800000000000D+00  0.0000000000000D+00  0.0000000000000D+00
   380  3.7900000000000D+00  0.0000000000000D+00  0.0000000000000D+00
   381  3.8000000000000D+00  0.0000000000000D+00  0.0000000000000D+00
   382  3.8100000000000D+00  0.0000000000000D+00  0.0000000000000D+00
   383  3.8200000000000D+00  0.0000000000000D+00  0.0000000000000D+00
   384  3.8300000000000D+00  0.0000000000000D+00  0.0000000000000D+00
   385  3.8400000000000D+00  0.0000000000000D+00  0.0000000000000D+00
   386  3.8500000000000D+00  0.0000000000000D+00  0.0000000000000D+00
   387  3.8600000000000D+00  0.0000000000000D+00  0.0000000000000D+00
   388  3.8700000000000D+00  0.0000000000000D+00  0.0000000000000D+00
   389  3.8800000000000D+00  0.0000000000000D+00  0.0000000000000D+00
   390  3.8900000000000D+00  0.0000000000000D+00  0.0000000000000D+00
   391  3.9000000000000D+00  0.0000000000000D+00  0.0000000000000D+00
   392  3.9100000000000D+00  0.0000000000000D+00  0.0000000000000D+00
   393  3.9200000000000D+00  0.0000000000000D+00  0.0000000000000D+00
   394  3.9300000000000D+00  0.0000000000000D+00  0.0000000000000D+00
   395  3.9400000000000D+00  0.0000000000000D+00  0.0000000000000D+00
   396  3.9500000000000D+00  0.0000000000000D+00  0.0000000000000D+00
   397  3.9600000000000D+00  0.0000000000000D+00  0.0000000000000D+00
   398  3.9700000000000D+00  0.0000000000000D+00  0.0000000000000D+00
   399  3.9800000000000D+00  0.0000000000000D+00  0.0000000000000D+00
   400  3.9900000000000D+00  0.0000000000000D+00  0.0000000000000D+00
   401  4.0000000000000D+00  0.0000000000000D+00  0.0000000000000D+00
   402  4.0100000000000D+00  0.0000000000000D+00  0.0000000000000D+00
   403  4.0200000000000D+00  0.0000000000000D+00  0.0000000000000D+00
   404  4.0300000000000D+00  0.0000000000000D+00  0.0000000000000D+00
   405  4.0400000000000D+00  0.0000000000000D+00  0.0000000000000D+00
   406  4.0500000000000D+00  0.0000000000000D+00  0.0000000000000D+00
   407  4.0600000000000D+00  0.0000000000000D+00  0.0000000000000D+00
   408  4.0700000000000D+00  0.0000000000000D+00  0.0000000000000D+00
   409  4.0800000000000D+00  0.0000000000000D+00  0.0000000000000D+00
   410  4.0900000000000D+00  0.0000000000000D+00  0.0000000000000D+00
   411  4.1000000000000D+00  0.0000000000000D+00  0.0000000000000D+00
   412  4.1100000000000D+00  0.0000000000000D+00  0.0000000000000D+00
   413  4.1200000000000D+00  0.0000000000000D+00  0.0000000000000D+00
   414  4.1300000000000D+00  0.0000000000000D+00  0.0000000000000D+00
   415  4.1400000000000D+00  0.0000000000000D+00  0.0000000000000D+00
   416  4.1500000000000D+00  0.0000000000000D+00  0.0000000000000D+00
   417  4.1600000000000D+00  0.0000000000000D+00  0.0000000000000D+00
   418  4.1700000000000D+00  0.0000000000000D+00  0.0000000000000D+00
   419  4.1800000000000D+00  0.0000000000000D+00  0.0000000000000D+00
   420  4.1900000000000D+00  0.0000000000000D+00  0.0000000000000D+00
   421  4.2000000000000D+00  0.0000000000000D+00  0.0000000000000D+00
   422  4.2100000000000D+00  0.0000000000000D+00  0.0000000000000D+00