Yb    ONCVPSP-3.3.0  r_core=   1.80778   1.51161   1.66296   1.70311
     70.0000     24.0000      220117    zatom,zion,pspd
     8      11   3     4   600     0    pspcod,pspxc,lmax,lloc,mmax,r2well
  5.99000000  0.00000000  0.00000000    rchrg fchrg qchrg
     2     2     2     2     0    nproj
     1     1           extension_switch
   0                         1.3500013441687D+01  1.2789552541584D+00
     1  0.0000000000000D+00 -1.9741092094350D-10  4.9553464109842D-10
     2  1.0000000000000D-02  6.2299927926800D-02 -1.8322101886993D-02
     3  2.0000000000000D-02  1.2445413495680D-01 -3.6449275325996D-02
     4  3.0000000000000D-02  1.8631761430260D-01 -5.4188188538095D-02
     5  4.0000000000000D-02  2.4774678174925D-01 -7.1348688879919D-02
     6  5.0000000000000D-02  3.0860017287510D-01 -8.7745357031416D-02
     7  6.0000000000000D-02  3.6873912353502D-01 -1.0319901908085D-01
     8  7.0000000000000D-02  4.2802842825994D-01 -1.1753820305829D-01
     9  8.0000000000000D-02  4.8633697142449D-01 -1.3060052696430D-01
    10  9.0000000000000D-02  5.4353832627746D-01 -1.4223400595221D-01
    11  1.0000000000000D-01  5.9951131721812D-01 -1.5229826704453D-01
    12  1.1000000000000D-01  6.5414054102987D-01 -1.6066566059137D-01
    13  1.2000000000000D-01  7.0731684315107D-01 -1.6722225860314D-01
    14  1.3000000000000D-01  7.5893774546596D-01 -1.7186873110507D-01
    15  1.4000000000000D-01  8.0890782253389D-01 -1.7452109275600D-01
    16  1.5000000000000D-01  8.5713902363863D-01 -1.7511131314233D-01
    17  1.6000000000000D-01  9.0355093852690D-01 -1.7358778538660D-01
    18  1.7000000000000D-01  9.4807100521267D-01 -1.6991564899107D-01
    19  1.8000000000000D-01  9.9063465874605D-01 -1.6407696415652D-01
    20  1.9000000000000D-01  1.0311854203790D+00 -1.5607073616589D-01
    21  2.0000000000000D-01  1.0696749270985D+00 -1.4591278978697D-01
    22  2.1000000000000D-01  1.1060629020376D+00 -1.3363549501892D-01
    23  2.2000000000000D-01  1.1403170668109D+00 -1.1928734686900D-01
    24  2.3000000000000D-01  1.1724129973470D+00 -1.0293240318832D-01
    25  2.4000000000000D-01  1.2023339253027D+00 -8.4649585905314D-02
    26  2.5000000000000D-01  1.2300704876396D+00 -6.4531852261538D-02
    27  2.6000000000000D-01  1.2556204274128D+00 -4.2685243864745D-02
    28  2.7000000000000D-01  1.2789882492636D+00 -1.9227822516713D-02
    29  2.8000000000000D-01  1.3001848335206D+00  5.7114971612839D-03
    30  2.9000000000000D-01  1.3192270131853D+00  3.1994207305996D-02
    31  3.0000000000000D-01  1.3361371184142D+00  5.9473546714196D-02
    32  3.1000000000000D-01  1.3509424933984D+00  8.7995908418337D-02
    33  3.2000000000000D-01  1.3636749907864D+00  1.1740230162712D-01
    34  3.3000000000000D-01  1.3743704489897D+00  1.4752985418575D-01
    35  3.4000000000000D-01  1.3830681578528D+00  1.7821334130181D-01
    36  3.5000000000000D-01  1.3898103182614D+00  2.0928672600563D-01
    37  3.6000000000000D-01  1.3946415012934D+00  2.4058469667385D-01
    38  3.7000000000000D-01  1.3976081124988D+00  2.7194418694178D-01
    39  3.8000000000000D-01  1.3987578668173D+00  3.0320586346855D-01
    40  3.9000000000000D-01  1.3981392795099D+00  3.3421556729495D-01
    41  4.0000000000000D-01  1.3958011782934D+00  3.6482569495023D-01
    42  4.1000000000000D-01  1.3917922416253D+00  3.9489650601378D-01
    43  4.2000000000000D-01  1.3861605677957D+00  4.2429734452112D-01
    44  4.3000000000000D-01  1.3789532791389D+00  4.5290776241070D-01
    45  4.4000000000000D-01  1.3702161652920D+00  4.8061853413755D-01
    46  4.5000000000000D-01  1.3599933689942D+00  5.0733255261775D-01
    47  4.6000000000000D-01  1.3483271174516D+00  5.3296559781096D-01
    48  4.7000000000000D-01  1.3352575017901D+00  5.5744697048262D-01
    49  4.8000000000000D-01  1.3208223065811D+00  5.8071998500162D-01
    50  4.9000000000000D-01  1.3050568908683D+00  6.0274231641524D-01
    51  5.0000000000000D-01  1.2879941215476D+00  6.2348619848087D-01
    52  5.1000000000000D-01  1.2696643593585D+00  6.4293847081641D-01
    53  5.2000000000000D-01  1.2500954971503D+00  6.6110047483939D-01
    54  5.3000000000000D-01  1.2293130494870D+00  6.7798779968508D-01
    55  5.4000000000000D-01  1.2073402920637D+00  6.9362988080971D-01
    56  5.5000000000000D-01  1.1841984488238D+00  7.0806945548451D-01
    57  5.6000000000000D-01  1.1599069241100D+00  7.2136188084720D-01
    58  5.7000000000000D-01  1.1344835766400D+00  7.3357432159083D-01
    59  5.8000000000000D-01  1.1079450315971D+00  7.4478481571594D-01
    60  5.9000000000000D-01  1.0803070266556D+00  7.5508122803837D-01
    61  6.0000000000000D-01  1.0515847873377D+00  7.6456010231446D-01
    62  6.1000000000000D-01  1.0217934267215D+00  7.7332542390943D-01
    63  6.2000000000000D-01  9.9094836419911D-01  7.8148730587318D-01
    64  6.3000000000000D-01  9.5906575771663D-01  7.8916061209907D-01
    65  6.4000000000000D-01  9.2616294372858D-01  7.9646353190394D-01
    66  6.5000000000000D-01  8.9225887895894D-01  8.0351612088354D-01
    67  6.6000000000000D-01  8.5737457799322D-01  8.1043882325237D-01
    68  6.7000000000000D-01  8.2153354072595D-01  8.1735099106585D-01
    69  6.8000000000000D-01  7.8476216375818D-01  8.2436941574837D-01
    70  6.9000000000000D-01  7.4709012998261D-01  8.3160688719927D-01
    71  7.0000000000000D-01  7.0855077080636D-01  8.3917079543340D-01
    72  7.1000000000000D-01  6.6918139574249D-01  8.4716178922618D-01
    73  7.2000000000000D-01  6.2902358445163D-01  8.5567250558194D-01
    74  7.3000000000000D-01  5.8812343672669D-01  8.6478638303605D-01
    75  7.4000000000000D-01  5.4653177638638D-01  8.7457657084353D-01
    76  7.5000000000000D-01  5.0430430557175D-01  8.8510494500566D-01
    77  7.6000000000000D-01  4.6150170651436D-01  8.9642124086464D-01
    78  7.7000000000000D-01  4.1818968846784D-01  9.0856231064937D-01
    79  7.8000000000000D-01  3.7443897814833D-01  9.2155151291943D-01
    80  7.9000000000000D-01  3.3032525271401D-01  9.3539823933190D-01
    81  8.0000000000000D-01  2.8592901501770D-01  9.5009758257184D-01
    82  8.1000000000000D-01  2.4133541158113D-01  9.6563014765815D-01
    83  8.2000000000000D-01  1.9663399445669D-01  9.8196200718674D-01
    84  8.3000000000000D-01  1.5191842885055D-01  9.9904479942050D-01
    85  8.4000000000000D-01  1.0728614907351D-01  1.0168159665036D+00
    86  8.5000000000000D-01  6.2837966049628D-02  1.0351991284903D+00
    87  8.6000000000000D-01  1.8677630240539D-02  1.0541045873530D+00
    88  8.7000000000000D-01 -2.5088645575297D-02  1.0734299537002D+00
    89  8.8000000000000D-01 -6.8352698703570D-02  1.0930608876041D+00
    90  8.9000000000000D-01 -1.1100495868901D-01  1.1128719437393D+00
    91  9.0000000000000D-01 -1.5293501340866D-01  1.1327275099809D+00
    92  9.1000000000000D-01 -1.9403219297848D-01  1.1524828277238D+00
    93  9.2000000000000D-01 -2.3418616512575D-01  1.1719850814759D+00
    94  9.3000000000000D-01 -2.7328753554807D-01  1.1910745447696D+00
    95  9.4000000000000D-01 -3.1122844674582D-01  1.2095857691240D+00
    96  9.5000000000000D-01 -3.4790316887967D-01  1.2273488027008D+00
    97  9.6000000000000D-01 -3.8320867637164D-01  1.2441904254197D+00
    98  9.7000000000000D-01 -4.1704520424007D-01  1.2599353876535D+00
    99  9.8000000000000D-01 -4.4931677852784D-01  1.2744076401862D+00
   100  9.9000000000000D-01 -4.7993171564995D-01  1.2874315439000D+00
   101  1.0000000000000D+00 -5.0880308606238D-01  1.2988330486670D+00
   102  1.0100000000000D+00 -5.3584913830141D-01  1.3084408321028D+00
   103  1.0200000000000D+00 -5.6099368018497D-01  1.3160873902212D+00
   104  1.0300000000000D+00 -5.8416641477473D-01  1.3216100735604D+00
   105  1.0400000000000D+00 -6.0530322960831D-01  1.3248520641014D+00
   106  1.0500000000000D+00 -6.2434643856094D-01  1.3256632899476D+00
   107  1.0600000000000D+00 -6.4124497675743D-01  1.3239012768045D+00
   108  1.0700000000000D+00 -6.5595454989146D-01  1.3194319371409D+00
   109  1.0800000000000D+00 -6.6843774031705D-01  1.3121302998887D+00
   110  1.0900000000000D+00 -6.7866407332011D-01  1.3018811855956D+00
   111  1.1000000000000D+00 -6.8661004781498D-01  1.2885798335852D+00
   112  1.1100000000000D+00 -6.9225913678604D-01  1.2721324897868D+00
   113  1.1200000000000D+00 -6.9560176354864D-01  1.2524569653542D+00
   114  1.1300000000000D+00 -6.9663526071464D-01  1.2294831777429D+00
   115  1.1400000000000D+00 -6.9536381933748D-01  1.2031536870118D+00
   116  1.1500000000000D+00 -6.9179843631469D-01  1.1734242412154D+00
   117  1.1600000000000D+00 -6.8595686848872D-01  1.1402643453219D+00
   118  1.1700000000000D+00 -6.7786360201295D-01  1.1036578681519D+00
   119  1.1800000000000D+00 -6.6754984561392D-01  1.0636037017941D+00
   120  1.1900000000000D+00 -6.5505355620252D-01  1.0201164872940D+00
   121  1.2000000000000D+00 -6.4041950474464D-01  9.7322741900851D-01
   122  1.2100000000000D+00 -6.2369938940568D-01  9.2298513780894D-01
   123  1.2200000000000D+00 -6.0495200259341D-01  8.6945672230245D-01
   124  1.2300000000000D+00 -5.8424345655714D-01  8.1272878256144D-01
   125  1.2400000000000D+00 -5.6164747028624D-01  7.5290865641686D-01
   126  1.2500000000000D+00 -5.3724571997497D-01  6.9012570721216D-01
   127  1.2600000000000D+00 -5.1112825138706D-01  6.2453271280690D-01
   128  1.2700000000000D+00 -4.8339394939844D-01  5.5630732865346D-01
   129  1.2800000000000D+00 -4.5415105930948D-01  4.8565360615931D-01
   130  1.2900000000000D+00 -4.2351774866329D-01  4.1280353415317D-01
   131  1.3000000000000D+00 -3.9162269294206D-01  3.3801855909626D-01
   132  1.3100000000000D+00 -3.5860566933397D-01  2.6159104151569D-01
   133  1.3200000000000D+00 -3.2461813268694D-01  1.8384558322556D-01
   134  1.3300000000000D+00 -2.8982374030840D-01  1.0514014300482D-01
   135  1.3400000000000D+00 -2.5439879760616D-01  2.5866870482365D-02
   136  1.3500000000000D+00 -2.1853257468085D-01 -5.3547461656338D-02
   137  1.3600000000000D+00 -1.8242744468842D-01 -1.3264154542489D-01
   138  1.3700000000000D+00 -1.4629879372851D-01 -2.1092026593465D-01
   139  1.3800000000000D+00 -1.1037462348347D-01 -2.8785625585481D-01
   140  1.3900000000000D+00 -7.4894781438820D-02 -3.6289243049181D-01
   141  1.4000000000000D+00 -4.0109732024335D-02 -4.3544570677126D-01
   142  1.4100000000000D+00 -6.2787585863675D-03 -5.0491216274075D-01
   143  1.4200000000000D+00  2.6332485035826D-02 -5.7067382849664D-01
   144  1.4300000000000D+00  5.7455224033589D-02 -6.3210745749809D-01
   145  1.4400000000000D+00  8.6821725909984D-02 -6.8859554072709D-01
   146  1.4500000000000D+00  1.1417052722368D-01 -7.3953991032729D-01
   147  1.4600000000000D+00  1.3925293629572D-01 -7.8437842977923D-01
   148  1.4700000000000D+00  1.6184086021400D-01 -8.2260486318707D-01
   149  1.4800000000000D+00  1.8173658821188D-01 -8.5379345897064D-01
   150  1.4900000000000D+00  1.9878279488115D-01 -8.7762385511796D-01
   151  1.5000000000000D+00  2.1287512013881D-01 -8.9391205306919D-01
   152  1.5100000000000D+00  2.2398962342623D-01 -9.0267913367493D-01
   153  1.5200000000000D+00  2.3217920692430D-01 -9.0414002436348D-01
   154  1.5300000000000D+00  2.3755861033960D-01 -8.9866234435802D-01
   155  1.5400000000000D+00  2.4028137965350D-01 -8.8670682950551D-01
   156  1.5500000000000D+00  2.4050549413198D-01 -8.6873897758136D-01
   157  1.5600000000000D+00  2.3840134775620D-01 -8.4524974930708D-01
   158  1.5700000000000D+00  2.3415278180485D-01 -8.1675874971667D-01
   159  1.5800000000000D+00  2.2795246001528D-01 -7.8380253116144D-01
   160  1.5900000000000D+00  2.2000153181223D-01 -7.4693411570191D-01
   161  1.6000000000000D+00  2.1050753693980D-01 -7.0671797779291D-01
   162  1.6100000000000D+00  1.9968278639661D-01 -6.6372627426180D-01
   163  1.6200000000000D+00  1.8774261123822D-01 -6.1853474725634D-01
   164  1.6300000000000D+00  1.7490358847742D-01 -5.7171857810362D-01
   165  1.6400000000000D+00  1.6138175741441D-01 -5.2384822286963D-01
   166  1.6500000000000D+00  1.4739084169041D-01 -4.7548526492403D-01
   167  1.6600000000000D+00  1.3314048999736D-01 -4.2717831442059D-01
   168  1.6700000000000D+00  1.1883455163971D-01 -3.7945899209019D-01
   169  1.6800000000000D+00  1.0466939818785D-01 -3.3283802338226D-01
   170  1.6900000000000D+00  9.0832308531299D-02 -2.8780148292806D-01
   171  1.7000000000000D+00  7.7499924866317D-02 -2.4480720668633D-01
   172  1.7100000000000D+00  6.4836800010774D-02 -2.0428141916838D-01
   173  1.7200000000000D+00  5.2994042414782D-02 -1.6661559067514D-01
   174  1.7300000000000D+00  4.2108070677593D-02 -1.3216355095518D-01
   175  1.7400000000000D+00  3.2299479021130D-02 -1.0123886256451D-01
   176  1.7500000000000D+00  2.3677182891371D-02 -7.4128599220739D-02
   177  1.7600000000000D+00  1.6317392304454D-02 -5.1028274397700D-02
   178  1.7700000000000D+00  1.0259494909310D-02 -3.2030731723438D-02
   179  1.7800000000000D+00  5.6034902409080D-03 -1.7427178340381D-02
   180  1.7900000000000D+00  2.4809683123913D-03 -7.6145895184201D-03
   181  1.8000000000000D+00  7.8563886884831D-04 -2.2737468359468D-03
   182  1.8100000000000D+00  9.0644784801270D-05 -1.1604521388129D-04
   183  1.8200000000000D+00 -5.9056423067213D-05  2.6688965190282D-04
   184  1.8300000000000D+00  2.7468209314025D-06 -1.0903503987903D-05
   185  1.8400000000000D+00  3.0726515083635D-05 -1.1606703574394D-04
   186  1.8500000000000D+00  5.7213622660891D-06 -2.1145753884572D-05
   187  1.8600000000000D+00 -4.5295162078483D-06  1.8520492169881D-05
   188  1.8700000000000D+00 -2.2971796460823D-06  9.1814830757233D-06
   189  1.8800000000000D+00 -4.3684077124431D-07  9.4282873264799D-07
   190  1.8900000000000D+00 -3.8005925212344D-07  8.2027779135634D-07
   191  1.9000000000000D+00  0.0000000000000D+00  0.0000000000000D+00
   192  1.9100000000000D+00  0.0000000000000D+00  0.0000000000000D+00
   193  1.9200000000000D+00  0.0000000000000D+00  0.0000000000000D+00
   194  1.9300000000000D+00  0.0000000000000D+00  0.0000000000000D+00
   195  1.9400000000000D+00  0.0000000000000D+00  0.0000000000000D+00
   196  1.9500000000000D+00  0.0000000000000D+00  0.0000000000000D+00
   197  1.9600000000000D+00  0.0000000000000D+00  0.0000000000000D+00
   198  1.9700000000000D+00  0.0000000000000D+00  0.0000000000000D+00
   199  1.9800000000000D+00  0.0000000000000D+00  0.0000000000000D+00
   200  1.9900000000000D+00  0.0000000000000D+00  0.0000000000000D+00
   201  2.0000000000000D+00  0.0000000000000D+00  0.0000000000000D+00
   202  2.0100000000000D+00  0.0000000000000D+00  0.0000000000000D+00
   203  2.0200000000000D+00  0.0000000000000D+00  0.0000000000000D+00
   204  2.0300000000000D+00  0.0000000000000D+00  0.0000000000000D+00
   205  2.0400000000000D+00  0.0000000000000D+00  0.0000000000000D+00
   206  2.0500000000000D+00  0.0000000000000D+00  0.0000000000000D+00
   207  2.0600000000000D+00  0.0000000000000D+00  0.0000000000000D+00
   208  2.0700000000000D+00  0.0000000000000D+00  0.0000000000000D+00
   209  2.0800000000000D+00  0.0000000000000D+00  0.0000000000000D+00
   210  2.0900000000000D+00  0.0000000000000D+00  0.0000000000000D+00
   211  2.1000000000000D+00  0.0000000000000D+00  0.0000000000000D+00
   212  2.1100000000000D+00  0.0000000000000D+00  0.0000000000000D+00
   213  2.1200000000000D+00  0.0000000000000D+00  0.0000000000000D+00
   214  2.1300000000000D+00  0.0000000000000D+00  0.0000000000000D+00
   215  2.1400000000000D+00  0.0000000000000D+00  0.0000000000000D+00
   216  2.1500000000000D+00  0.0000000000000D+00  0.0000000000000D+00
   217  2.1600000000000D+00  0.0000000000000D+00  0.0000000000000D+00
   218  2.1700000000000D+00  0.0000000000000D+00  0.0000000000000D+00
   219  2.1800000000000D+00  0.0000000000000D+00  0.0000000000000D+00
   220  2.1900000000000D+00  0.0000000000000D+00  0.0000000000000D+00
   221  2.2000000000000D+00  0.0000000000000D+00  0.0000000000000D+00
   222  2.2100000000000D+00  0.0000000000000D+00  0.0000000000000D+00
   223  2.2200000000000D+00  0.0000000000000D+00  0.0000000000000D+00
   224  2.2300000000000D+00  0.0000000000000D+00  0.0000000000000D+00
   225  2.2400000000000D+00  0.0000000000000D+00  0.0000000000000D+00
   226  2.2500000000000D+00  0.0000000000000D+00  0.0000000000000D+00
   227  2.2600000000000D+00  0.0000000000000D+00  0.0000000000000D+00
   228  2.2700000000000D+00  0.0000000000000D+00  0.0000000000000D+00
   229  2.2800000000000D+00  0.0000000000000D+00  0.0000000000000D+00
   230  2.2900000000000D+00  0.0000000000000D+00  0.0000000000000D+00
   231  2.3000000000000D+00  0.0000000000000D+00  0.0000000000000D+00
   232  2.3100000000000D+00  0.0000000000000D+00  0.0000000000000D+00
   233  2.3200000000000D+00  0.0000000000000D+00  0.0000000000000D+00
   234  2.3300000000000D+00  0.0000000000000D+00  0.0000000000000D+00
   235  2.3400000000000D+00  0.0000000000000D+00  0.0000000000000D+00
   236  2.3500000000000D+00  0.0000000000000D+00  0.0000000000000D+00
   237  2.3600000000000D+00  0.0000000000000D+00  0.0000000000000D+00
   238  2.3700000000000D+00  0.0000000000000D+00  0.0000000000000D+00
   239  2.3800000000000D+00  0.0000000000000D+00  0.0000000000000D+00
   240  2.3900000000000D+00  0.0000000000000D+00  0.0000000000000D+00
   241  2.4000000000000D+00  0.0000000000000D+00  0.0000000000000D+00
   242  2.4100000000000D+00  0.0000000000000D+00  0.0000000000000D+00
   243  2.4200000000000D+00  0.0000000000000D+00  0.0000000000000D+00
   244  2.4300000000000D+00  0.0000000000000D+00  0.0000000000000D+00
   245  2.4400000000000D+00  0.0000000000000D+00  0.0000000000000D+00
   246  2.4500000000000D+00  0.0000000000000D+00  0.0000000000000D+00
   247  2.4600000000000D+00  0.0000000000000D+00  0.0000000000000D+00
   248  2.4700000000000D+00  0.0000000000000D+00  0.0000000000000D+00
   249  2.4800000000000D+00  0.0000000000000D+00  0.0000000000000D+00
   250  2.4900000000000D+00  0.0000000000000D+00  0.0000000000000D+00
   251  2.5000000000000D+00  0.0000000000000D+00  0.0000000000000D+00
   252  2.5100000000000D+00  0.0000000000000D+00  0.0000000000000D+00
   253  2.5200000000000D+00  0.0000000000000D+00  0.0000000000000D+00
   254  2.5300000000000D+00  0.0000000000000D+00  0.0000000000000D+00
   255  2.5400000000000D+00  0.0000000000000D+00  0.0000000000000D+00
   256  2.5500000000000D+00  0.0000000000000D+00  0.0000000000000D+00
   257  2.5600000000000D+00  0.0000000000000D+00  0.0000000000000D+00
   258  2.5700000000000D+00  0.0000000000000D+00  0.0000000000000D+00
   259  2.5800000000000D+00  0.0000000000000D+00  0.0000000000000D+00
   260  2.5900000000000D+00  0.0000000000000D+00  0.0000000000000D+00
   261  2.6000000000000D+00  0.0000000000000D+00  0.0000000000000D+00
   262  2.6100000000000D+00  0.0000000000000D+00  0.0000000000000D+00
   263  2.6200000000000D+00  0.0000000000000D+00  0.0000000000000D+00
   264  2.6300000000000D+00  0.0000000000000D+00  0.0000000000000D+00
   265  2.6400000000000D+00  0.0000000000000D+00  0.0000000000000D+00
   266  2.6500000000000D+00  0.0000000000000D+00  0.0000000000000D+00
   267  2.6600000000000D+00  0.0000000000000D+00  0.0000000000000D+00
   268  2.6700000000000D+00  0.0000000000000D+00  0.0000000000000D+00
   269  2.6800000000000D+00  0.0000000000000D+00  0.0000000000000D+00
   270  2.6900000000000D+00  0.0000000000000D+00  0.0000000000000D+00
   271  2.7000000000000D+00  0.0000000000000D+00  0.0000000000000D+00
   272  2.7100000000000D+00  0.0000000000000D+00  0.0000000000000D+00
   273  2.7200000000000D+00  0.0000000000000D+00  0.0000000000000D+00
   274  2.7300000000000D+00  0.0000000000000D+00  0.0000000000000D+00
   275  2.7400000000000D+00  0.0000000000000D+00  0.0000000000000D+00
   276  2.7500000000000D+00  0.0000000000000D+00  0.0000000000000D+00
   277  2.7600000000000D+00  0.0000000000000D+00  0.0000000000000D+00
   278  2.7700000000000D+00  0.0000000000000D+00  0.0000000000000D+00
   279  2.7800000000000D+00  0.0000000000000D+00  0.0000000000000D+00
   280  2.7900000000000D+00  0.0000000000000D+00  0.0000000000000D+00
   281  2.8000000000000D+00  0.0000000000000D+00  0.0000000000000D+00
   282  2.8100000000000D+00  0.0000000000000D+00  0.0000000000000D+00
   283  2.8200000000000D+00  0.0000000000000D+00  0.0000000000000D+00
   284  2.8300000000000D+00  0.0000000000000D+00  0.0000000000000D+00
   285  2.8400000000000D+00  0.0000000000000D+00  0.0000000000000D+00
   286  2.8500000000000D+00  0.0000000000000D+00  0.0000000000000D+00
   287  2.8600000000000D+00  0.0000000000000D+00  0.0000000000000D+00
   288  2.8700000000000D+00  0.0000000000000D+00  0.0000000000000D+00
   289  2.8800000000000D+00  0.0000000000000D+00  0.0000000000000D+00
   290  2.8900000000000D+00  0.0000000000000D+00  0.0000000000000D+00
   291  2.9000000000000D+00  0.0000000000000D+00  0.0000000000000D+00
   292  2.9100000000000D+00  0.0000000000000D+00  0.0000000000000D+00
   293  2.9200000000000D+00  0.0000000000000D+00  0.0000000000000D+00
   294  2.9300000000000D+00  0.0000000000000D+00  0.0000000000000D+00
   295  2.9400000000000D+00  0.0000000000000D+00  0.0000000000000D+00
   296  2.9500000000000D+00  0.0000000000000D+00  0.0000000000000D+00
   297  2.9600000000000D+00  0.0000000000000D+00  0.0000000000000D+00
   298  2.9700000000000D+00  0.0000000000000D+00  0.0000000000000D+00
   299  2.9800000000000D+00  0.0000000000000D+00  0.0000000000000D+00
   300  2.9900000000000D+00  0.0000000000000D+00  0.0000000000000D+00
   301  3.0000000000000D+00  0.0000000000000D+00  0.0000000000000D+00
   302  3.0100000000000D+00  0.0000000000000D+00  0.0000000000000D+00
   303  3.0200000000000D+00  0.0000000000000D+00  0.0000000000000D+00
   304  3.0300000000000D+00  0.0000000000000D+00  0.0000000000000D+00
   305  3.0400000000000D+00  0.0000000000000D+00  0.0000000000000D+00
   306  3.0500000000000D+00  0.0000000000000D+00  0.0000000000000D+00
   307  3.0600000000000D+00  0.0000000000000D+00  0.0000000000000D+00
   308  3.0700000000000D+00  0.0000000000000D+00  0.0000000000000D+00
   309  3.0800000000000D+00  0.0000000000000D+00  0.0000000000000D+00
   310  3.0900000000000D+00  0.0000000000000D+00  0.0000000000000D+00
   311  3.1000000000000D+00  0.0000000000000D+00  0.0000000000000D+00
   312  3.1100000000000D+00  0.0000000000000D+00  0.0000000000000D+00
   313  3.1200000000000D+00  0.0000000000000D+00  0.0000000000000D+00
   314  3.1300000000000D+00  0.0000000000000D+00  0.0000000000000D+00
   315  3.1400000000000D+00  0.0000000000000D+00  0.0000000000000D+00
   316  3.1500000000000D+00  0.0000000000000D+00  0.0000000000000D+00
   317  3.1600000000000D+00  0.0000000000000D+00  0.0000000000000D+00
   318  3.1700000000000D+00  0.0000000000000D+00  0.0000000000000D+00
   319  3.1800000000000D+00  0.0000000000000D+00  0.0000000000000D+00
   320  3.1900000000000D+00  0.0000000000000D+00  0.0000000000000D+00
   321  3.2000000000000D+00  0.0000000000000D+00  0.0000000000000D+00
   322  3.2100000000000D+00  0.0000000000000D+00  0.0000000000000D+00
   323  3.2200000000000D+00  0.0000000000000D+00  0.0000000000000D+00
   324  3.2300000000000D+00  0.0000000000000D+00  0.0000000000000D+00
   325  3.2400000000000D+00  0.0000000000000D+00  0.0000000000000D+00
   326  3.2500000000000D+00  0.0000000000000D+00  0.0000000000000D+00
   327  3.2600000000000D+00  0.0000000000000D+00  0.0000000000000D+00
   328  3.2700000000000D+00  0.0000000000000D+00  0.0000000000000D+00
   329  3.2800000000000D+00  0.0000000000000D+00  0.0000000000000D+00
   330  3.2900000000000D+00  0.0000000000000D+00  0.0000000000000D+00
   331  3.3000000000000D+00  0.0000000000000D+00  0.0000000000000D+00
   332  3.3100000000000D+00  0.0000000000000D+00  0.0000000000000D+00
   333  3.3200000000000D+00  0.0000000000000D+00  0.0000000000000D+00
   334  3.3300000000000D+00  0.0000000000000D+00  0.0000000000000D+00
   335  3.3400000000000D+00  0.0000000000000D+00  0.0000000000000D+00
   336  3.3500000000000D+00  0.0000000000000D+00  0.0000000000000D+00
   337  3.3600000000000D+00  0.0000000000000D+00  0.0000000000000D+00
   338  3.3700000000000D+00  0.0000000000000D+00  0.0000000000000D+00
   339  3.3800000000000D+00  0.0000000000000D+00  0.0000000000000D+00
   340  3.3900000000000D+00  0.0000000000000D+00  0.0000000000000D+00
   341  3.4000000000000D+00  0.0000000000000D+00  0.0000000000000D+00
   342  3.4100000000000D+00  0.0000000000000D+00  0.0000000000000D+00
   343  3.4200000000000D+00  0.0000000000000D+00  0.0000000000000D+00
   344  3.4300000000000D+00  0.0000000000000D+00  0.0000000000000D+00
   345  3.4400000000000D+00  0.0000000000000D+00  0.0000000000000D+00
   346  3.4500000000000D+00  0.0000000000000D+00  0.0000000000000D+00
   347  3.4600000000000D+00  0.0000000000000D+00  0.0000000000000D+00
   348  3.4700000000000D+00  0.0000000000000D+00  0.0000000000000D+00
   349  3.4800000000000D+00  0.0000000000000D+00  0.0000000000000D+00
   350  3.4900000000000D+00  0.0000000000000D+00  0.0000000000000D+00
   351  3.5000000000000D+00  0.0000000000000D+00  0.0000000000000D+00
   352  3.5100000000000D+00  0.0000000000000D+00  0.0000000000000D+00
   353  3.5200000000000D+00  0.0000000000000D+00  0.0000000000000D+00
   354  3.5300000000000D+00  0.0000000000000D+00  0.0000000000000D+00
   355  3.5400000000000D+00  0.0000000000000D+00  0.0000000000000D+00
   356  3.5500000000000D+00  0.0000000000000D+00  0.0000000000000D+00
   357  3.5600000000000D+00  0.0000000000000D+00  0.0000000000000D+00
   358  3.5700000000000D+00  0.0000000000000D+00  0.0000000000000D+00
   359  3.5800000000000D+00  0.0000000000000D+00  0.0000000000000D+00
   360  3.5900000000000D+00  0.0000000000000D+00  0.0000000000000D+00
   361  3.6000000000000D+00  0.0000000000000D+00  0.0000000000000D+00
   362  3.6100000000000D+00  0.0000000000000D+00  0.0000000000000D+00
   363  3.6200000000000D+00  0.0000000000000D+00  0.0000000000000D+00
   364  3.6300000000000D+00  0.0000000000000D+00  0.0000000000000D+00
   365  3.6400000000000D+00  0.0000000000000D+00  0.0000000000000D+00
   366  3.6500000000000D+00  0.0000000000000D+00  0.0000000000000D+00
   367  3.6600000000000D+00  0.0000000000000D+00  0.0000000000000D+00
   368  3.6700000000000D+00  0.0000000000000D+00  0.0000000000000D+00
   369  3.6800000000000D+00  0.0000000000000D+00  0.0000000000000D+00
   370  3.6900000000000D+00  0.0000000000000D+00  0.0000000000000D+00
   371  3.7000000000000D+00  0.0000000000000D+00  0.0000000000000D+00
   372  3.7100000000000D+00  0.0000000000000D+00  0.0000000000000D+00
   373  3.7200000000000D+00  0.0000000000000D+00  0.0000000000000D+00
   374  3.7300000000000D+00  0.0000000000000D+00  0.0000000000000D+00
   375  3.7400000000000D+00  0.0000000000000D+00  0.0000000000000D+00
   376  3.7500000000000D+00  0.0000000000000D+00  0.0000000000000D+00
   377  3.7600000000000D+00  0.0000000000000D+00  0.0000000000000D+00
   378  3.7700000000000D+00  0.0000000000000D+00  0.0000000000000D+00
   379  3.7800000000000D+00  0.0000000000000D+00  0.0000000000000D+00
   380  3.7900000000000D+00  0.0000000000000D+00  0.0000000000000D+00
   381  3.8000000000000D+00  0.0000000000000D+00  0.0000000000000D+00
   382  3.8100000000000D+00  0.0000000000000D+00  0.0000000000000D+00
   383  3.8200000000000D+00  0.0000000000000D+00  0.0000000000000D+00
   384  3.8300000000000D+00  0.0000000000000D+00  0.0000000000000D+00
   385  3.8400000000000D+00  0.0000000000000D+00  0.0000000000000D+00
   386  3.8500000000000D+00  0.0000000000000D+00  0.0000000000000D+00
   387  3.8600000000000D+00  0.0000000000000D+00  0.0000000000000D+00
   388  3.8700000000000D+00  0.0000000000000D+00  0.0000000000000D+00
   389  3.8800000000000D+00  0.0000000000000D+00  0.0000000000000D+00
   390  3.8900000000000D+00  0.0000000000000D+00  0.0000000000000D+00
   391  3.9000000000000D+00  0.0000000000000D+00  0.0000000000000D+00
   392  3.9100000000000D+00  0.0000000000000D+00  0.0000000000000D+00
   393  3.9200000000000D+00  0.0000000000000D+00  0.0000000000000D+00
   394  3.9300000000000D+00  0.0000000000000D+00  0.0000000000000D+00
   395  3.9400000000000D+00  0.0000000000000D+00  0.0000000000000D+00
   396  3.9500000000000D+00  0.0000000000000D+00  0.0000000000000D+00
   397  3.9600000000000D+00  0.0000000000000D+00  0.0000000000000D+00
   398  3.9700000000000D+00  0.0000000000000D+00  0.0000000000000D+00
   399  3.9800000000000D+00  0.0000000000000D+00  0.0000000000000D+00
   400  3.9900000000000D+00  0.0000000000000D+00  0.0000000000000D+00
   401  4.0000000000000D+00  0.0000000000000D+00  0.0000000000000D+00
   402  4.0100000000000D+00  0.0000000000000D+00  0.0000000000000D+00
   403  4.0200000000000D+00  0.0000000000000D+00  0.0000000000000D+00
   404  4.0300000000000D+00  0.0000000000000D+00  0.0000000000000D+00
   405  4.0400000000000D+00  0.0000000000000D+00  0.0000000000000D+00
   406  4.0500000000000D+00  0.0000000000000D+00  0.0000000000000D+00
   407  4.0600000000000D+00  0.0000000000000D+00  0.0000000000000D+00
   408  4.0700000000000D+00  0.0000000000000D+00  0.0000000000000D+00
   409  4.0800000000000D+00  0.0000000000000D+00  0.0000000000000D+00
   410  4.0900000000000D+00  0.0000000000000D+00  0.0000000000000D+00
   411  4.1000000000000D+00  0.0000000000000D+00  0.0000000000000D+00
   412  4.1100000000000D+00  0.0000000000000D+00  0.0000000000000D+00
   413  4.1200000000000D+00  0.0000000000000D+00  0.0000000000000D+00
   414  4.1300000000000D+00  0.0000000000000D+00  0.0000000000000D+00
   415  4.1400000000000D+00  0.0000000000000D+00  0.0000000000000D+00
   416  4.1500000000000D+00  0.0000000000000D+00  0.0000000000000D+00
   417  4.1600000000000D+00  0.0000000000000D+00  0.0000000000000D+00
   418  4.1700000000000D+00  0.0000000000000D+00  0.0000000000000D+00
   419  4.1800000000000D+00  0.0000000000000D+00  0.0000000000000D+00
   420  4.1900000000000D+00  0.0000000000000D+00  0.0000000000000D+00
   421  4.2000000000000D+00  0.0000000000000D+00  0.0000000000000D+00
   422  4.2100000000000D+00  0.0000000000000D+00  0.0000000000000D+00